<?xml version="1.0" encoding="UTF-8"?>

<!-- generated on 2024-11-05 21:11:48 by Eclipse SUMO sumo Version 1.21.0
<sumoConfiguration xmlns:xsi="http://www.w3.org/2001/XMLSchema-instance" xsi:noNamespaceSchemaLocation="http://sumo.dlr.de/xsd/sumoConfiguration.xsd">

    <input>
        <net-file value="../sumo/test.net.xml"/>
        <route-files value="../sumo/test.rou.xml"/>
        <additional-files value="../sumo/test.add.xml"/>
    </input>

    <output>
        <tripinfo-output value="../sumo/tripinfo.xml"/>
    </output>

</sumoConfiguration>
-->

<tripinfos xmlns:xsi="http://www.w3.org/2001/XMLSchema-instance" xsi:noNamespaceSchemaLocation="http://sumo.dlr.de/xsd/tripinfo_file.xsd">
    <tripinfo id="f_2.0" depart="0.00" departLane="E7_0" departPos="5.10" departSpeed="0.00" departDelay="0.00" arrival="116.00" arrivalLane="E23_0" arrivalPos="89.60" arrivalSpeed="13.80" duration="116.00" routeLength="863.67" waitingTime="25.00" waitingCount="1" stopTime="0.00" timeLoss="52.73" rerouteNo="0" devices="tripinfo_f_2.0" vType="DEFAULT_VEHTYPE" speedFactor="1.01" vaporized=""/>
    <tripinfo id="f_3.0" depart="3.00" departLane="E21_0" departPos="5.10" departSpeed="0.00" departDelay="3.00" arrival="117.00" arrivalLane="E9_0" arrivalPos="85.60" arrivalSpeed="14.18" duration="114.00" routeLength="857.78" waitingTime="23.00" waitingCount="1" stopTime="0.00" timeLoss="54.86" rerouteNo="0" devices="tripinfo_f_3.0" vType="DEFAULT_VEHTYPE" speedFactor="1.08" vaporized=""/>
    <tripinfo id="f_1.0" depart="0.00" departLane="E6_0" departPos="5.10" departSpeed="0.00" departDelay="0.00" arrival="118.00" arrivalLane="E22_0" arrivalPos="92.00" arrivalSpeed="12.10" duration="118.00" routeLength="863.95" waitingTime="26.00" waitingCount="2" stopTime="0.00" timeLoss="48.55" rerouteNo="0" devices="tripinfo_f_1.0" vType="DEFAULT_VEHTYPE" speedFactor="0.94" vaporized=""/>
    <tripinfo id="f_10.0" depart="0.00" departLane="E19_0" departPos="5.10" departSpeed="0.00" departDelay="0.00" arrival="120.00" arrivalLane="E22_0" arrivalPos="92.00" arrivalSpeed="15.04" duration="120.00" routeLength="870.69" waitingTime="34.00" waitingCount="3" stopTime="0.00" timeLoss="60.15" rerouteNo="0" devices="tripinfo_f_10.0" vType="DEFAULT_VEHTYPE" speedFactor="1.09" vaporized=""/>
    <tripinfo id="f_8.0" depart="3.00" departLane="E7_0" departPos="5.10" departSpeed="0.00" departDelay="3.00" arrival="123.00" arrivalLane="E23_0" arrivalPos="89.60" arrivalSpeed="12.48" duration="120.00" routeLength="863.67" waitingTime="24.00" waitingCount="2" stopTime="0.00" timeLoss="51.07" rerouteNo="0" devices="tripinfo_f_8.0" vType="DEFAULT_VEHTYPE" speedFactor="0.94" vaporized=""/>
    <tripinfo id="f_0.0" depart="0.00" departLane="E21_0" departPos="5.10" departSpeed="0.00" departDelay="0.00" arrival="139.00" arrivalLane="E21_0" arrivalPos="89.60" arrivalSpeed="13.79" duration="139.00" routeLength="866.12" waitingTime="43.00" waitingCount="3" stopTime="0.00" timeLoss="77.52" rerouteNo="0" devices="tripinfo_f_0.0" vType="DEFAULT_VEHTYPE" speedFactor="1.06" vaporized=""/>
    <tripinfo id="f_7.0" depart="0.00" departLane="E1_0" departPos="5.10" departSpeed="0.00" departDelay="0.00" arrival="153.00" arrivalLane="E17_0" arrivalPos="89.60" arrivalSpeed="12.07" duration="153.00" routeLength="866.35" waitingTime="42.00" waitingCount="4" stopTime="0.00" timeLoss="79.46" rerouteNo="0" devices="tripinfo_f_7.0" vType="DEFAULT_VEHTYPE" speedFactor="0.89" vaporized=""/>
    <tripinfo id="f_5.0" depart="0.00" departLane="E22_0" departPos="5.10" departSpeed="0.00" departDelay="0.00" arrival="168.00" arrivalLane="E6_0" arrivalPos="89.60" arrivalSpeed="11.22" duration="168.00" routeLength="872.24" waitingTime="62.00" waitingCount="2" stopTime="0.00" timeLoss="90.92" rerouteNo="0" devices="tripinfo_f_5.0" vType="DEFAULT_VEHTYPE" speedFactor="0.83" vaporized=""/>
    <tripinfo id="f_4.0" depart="0.00" departLane="E23_0" departPos="5.10" departSpeed="0.00" departDelay="0.00" arrival="197.00" arrivalLane="E11_0" arrivalPos="92.00" arrivalSpeed="13.88" duration="197.00" routeLength="874.69" waitingTime="97.00" waitingCount="3" stopTime="0.00" timeLoss="132.75" rerouteNo="0" devices="tripinfo_f_4.0" vType="DEFAULT_VEHTYPE" speedFactor="1.03" vaporized=""/>
    <tripinfo id="f_6.0" depart="0.00" departLane="E4_0" departPos="5.10" departSpeed="0.00" departDelay="0.00" arrival="205.00" arrivalLane="E20_0" arrivalPos="89.60" arrivalSpeed="14.23" duration="205.00" routeLength="864.57" waitingTime="112.00" waitingCount="3" stopTime="0.00" timeLoss="142.16" rerouteNo="0" devices="tripinfo_f_6.0" vType="DEFAULT_VEHTYPE" speedFactor="1.05" vaporized=""/>
    <tripinfo id="f_9.0" depart="0.00" departLane="E20_0" departPos="5.10" departSpeed="0.00" departDelay="0.00" arrival="211.00" arrivalLane="E8_0" arrivalPos="92.00" arrivalSpeed="11.00" duration="211.00" routeLength="872.75" waitingTime="100.00" waitingCount="3" stopTime="0.00" timeLoss="133.94" rerouteNo="0" devices="tripinfo_f_9.0" vType="DEFAULT_VEHTYPE" speedFactor="0.86" vaporized=""/>
    <tripinfo id="f_0.1" depart="400.00" departLane="E21_0" departPos="5.10" departSpeed="0.00" departDelay="0.00" arrival="529.00" arrivalLane="E21_0" arrivalPos="89.60" arrivalSpeed="6.86" duration="129.00" routeLength="866.12" waitingTime="30.00" waitingCount="2" stopTime="0.00" timeLoss="65.55" rerouteNo="0" devices="tripinfo_f_0.1" vType="DEFAULT_VEHTYPE" speedFactor="1.03" vaporized=""/>
    <tripinfo id="f_3.1" depart="403.00" departLane="E21_0" departPos="5.10" departSpeed="0.00" departDelay="3.00" arrival="531.00" arrivalLane="E9_0" arrivalPos="85.60" arrivalSpeed="5.76" duration="128.00" routeLength="857.78" waitingTime="29.00" waitingCount="4" stopTime="0.00" timeLoss="70.23" rerouteNo="0" devices="tripinfo_f_3.1" vType="DEFAULT_VEHTYPE" speedFactor="1.12" vaporized=""/>
    <tripinfo id="f_5.1" depart="450.00" departLane="E22_0" departPos="5.10" departSpeed="0.00" departDelay="0.00" arrival="547.00" arrivalLane="E6_0" arrivalPos="89.60" arrivalSpeed="15.10" duration="97.00" routeLength="872.24" waitingTime="12.00" waitingCount="2" stopTime="0.00" timeLoss="41.16" rerouteNo="0" devices="tripinfo_f_5.1" vType="DEFAULT_VEHTYPE" speedFactor="1.16" vaporized=""/>
    <tripinfo id="f_8.1" depart="400.00" departLane="E7_0" departPos="5.10" departSpeed="0.00" departDelay="0.00" arrival="560.00" arrivalLane="E23_0" arrivalPos="89.60" arrivalSpeed="12.64" duration="160.00" routeLength="863.67" waitingTime="63.00" waitingCount="3" stopTime="0.00" timeLoss="90.32" rerouteNo="0" devices="tripinfo_f_8.1" vType="DEFAULT_VEHTYPE" speedFactor="0.93" vaporized=""/>
    <tripinfo id="f_1.1" depart="400.00" departLane="E6_0" departPos="5.10" departSpeed="0.00" departDelay="0.00" arrival="561.00" arrivalLane="E22_0" arrivalPos="92.00" arrivalSpeed="14.38" duration="161.00" routeLength="863.95" waitingTime="65.00" waitingCount="4" stopTime="0.00" timeLoss="99.46" rerouteNo="0" devices="tripinfo_f_1.1" vType="DEFAULT_VEHTYPE" speedFactor="1.05" vaporized=""/>
    <tripinfo id="f_2.1" depart="450.00" departLane="E7_0" departPos="5.10" departSpeed="0.00" departDelay="0.00" arrival="565.00" arrivalLane="E23_0" arrivalPos="89.60" arrivalSpeed="12.75" duration="115.00" routeLength="863.67" waitingTime="12.00" waitingCount="2" stopTime="0.00" timeLoss="46.99" rerouteNo="0" devices="tripinfo_f_2.1" vType="DEFAULT_VEHTYPE" speedFactor="0.94" vaporized=""/>
    <tripinfo id="f_10.1" depart="450.00" departLane="E19_0" departPos="5.10" departSpeed="0.00" departDelay="0.00" arrival="569.00" arrivalLane="E22_0" arrivalPos="92.00" arrivalSpeed="13.12" duration="119.00" routeLength="870.69" waitingTime="30.00" waitingCount="1" stopTime="0.00" timeLoss="55.84" rerouteNo="0" devices="tripinfo_f_10.1" vType="DEFAULT_VEHTYPE" speedFactor="1.01" vaporized=""/>
    <tripinfo id="f_9.1" depart="400.00" departLane="E20_0" departPos="5.10" departSpeed="0.00" departDelay="0.00" arrival="574.00" arrivalLane="E8_0" arrivalPos="92.00" arrivalSpeed="11.42" duration="174.00" routeLength="872.75" waitingTime="67.00" waitingCount="3" stopTime="0.00" timeLoss="99.52" rerouteNo="0" devices="tripinfo_f_9.1" vType="DEFAULT_VEHTYPE" speedFactor="0.88" vaporized=""/>
    <tripinfo id="f_7.1" depart="450.00" departLane="E1_0" departPos="5.10" departSpeed="0.00" departDelay="0.00" arrival="605.00" arrivalLane="E17_0" arrivalPos="89.60" arrivalSpeed="13.98" duration="155.00" routeLength="866.35" waitingTime="56.00" waitingCount="3" stopTime="0.00" timeLoss="90.91" rerouteNo="0" devices="tripinfo_f_7.1" vType="DEFAULT_VEHTYPE" speedFactor="1.02" vaporized=""/>
    <tripinfo id="f_4.1" depart="450.00" departLane="E23_0" departPos="5.10" departSpeed="0.00" departDelay="0.00" arrival="631.00" arrivalLane="E11_0" arrivalPos="92.00" arrivalSpeed="12.90" duration="181.00" routeLength="874.69" waitingTime="75.00" waitingCount="5" stopTime="0.00" timeLoss="111.05" rerouteNo="0" devices="tripinfo_f_4.1" vType="DEFAULT_VEHTYPE" speedFactor="0.94" vaporized=""/>
    <tripinfo id="f_6.1" depart="400.00" departLane="E4_0" departPos="5.10" departSpeed="0.00" departDelay="0.00" arrival="633.00" arrivalLane="E20_0" arrivalPos="89.60" arrivalSpeed="13.33" duration="233.00" routeLength="864.57" waitingTime="132.00" waitingCount="5" stopTime="0.00" timeLoss="168.28" rerouteNo="0" devices="tripinfo_f_6.1" vType="DEFAULT_VEHTYPE" speedFactor="0.99" vaporized=""/>
    <tripinfo id="f_0.2" depart="800.00" departLane="E21_0" departPos="5.10" departSpeed="0.00" departDelay="0.00" arrival="906.00" arrivalLane="E21_0" arrivalPos="89.60" arrivalSpeed="13.35" duration="106.00" routeLength="866.12" waitingTime="14.00" waitingCount="2" stopTime="0.00" timeLoss="39.96" rerouteNo="0" devices="tripinfo_f_0.2" vType="DEFAULT_VEHTYPE" speedFactor="0.97" vaporized=""/>
    <tripinfo id="f_8.2" depart="800.00" departLane="E7_0" departPos="5.10" departSpeed="0.00" departDelay="0.00" arrival="919.00" arrivalLane="E23_0" arrivalPos="89.60" arrivalSpeed="11.69" duration="119.00" routeLength="863.67" waitingTime="19.00" waitingCount="3" stopTime="0.00" timeLoss="49.50" rerouteNo="0" devices="tripinfo_f_8.2" vType="DEFAULT_VEHTYPE" speedFactor="0.92" vaporized=""/>
    <tripinfo id="f_3.2" depart="803.00" departLane="E21_0" departPos="5.10" departSpeed="0.00" departDelay="3.00" arrival="941.00" arrivalLane="E9_0" arrivalPos="85.60" arrivalSpeed="10.57" duration="138.00" routeLength="857.78" waitingTime="30.00" waitingCount="2" stopTime="0.00" timeLoss="59.07" rerouteNo="0" devices="tripinfo_f_3.2" vType="DEFAULT_VEHTYPE" speedFactor="0.83" vaporized=""/>
    <tripinfo id="f_9.2" depart="800.00" departLane="E20_0" departPos="5.10" departSpeed="0.00" departDelay="0.00" arrival="954.00" arrivalLane="E8_0" arrivalPos="92.00" arrivalSpeed="12.76" duration="154.00" routeLength="872.75" waitingTime="56.00" waitingCount="2" stopTime="0.00" timeLoss="85.57" rerouteNo="0" devices="tripinfo_f_9.2" vType="DEFAULT_VEHTYPE" speedFactor="0.95" vaporized=""/>
    <tripinfo id="f_6.2" depart="800.00" departLane="E4_0" departPos="5.10" departSpeed="0.00" departDelay="0.00" arrival="993.00" arrivalLane="E20_0" arrivalPos="89.60" arrivalSpeed="10.88" duration="193.00" routeLength="864.57" waitingTime="86.00" waitingCount="6" stopTime="0.00" timeLoss="118.10" rerouteNo="0" devices="tripinfo_f_6.2" vType="DEFAULT_VEHTYPE" speedFactor="0.87" vaporized=""/>
    <tripinfo id="f_7.2" depart="900.00" departLane="E1_0" departPos="5.10" departSpeed="0.00" departDelay="0.00" arrival="1004.00" arrivalLane="E17_0" arrivalPos="89.60" arrivalSpeed="14.98" duration="104.00" routeLength="866.35" waitingTime="14.00" waitingCount="2" stopTime="0.00" timeLoss="47.00" rerouteNo="0" devices="tripinfo_f_7.2" vType="DEFAULT_VEHTYPE" speedFactor="1.15" vaporized=""/>
    <tripinfo id="f_5.2" depart="900.00" departLane="E22_0" departPos="5.10" departSpeed="0.00" departDelay="0.00" arrival="1009.00" arrivalLane="E6_0" arrivalPos="89.60" arrivalSpeed="16.03" duration="109.00" routeLength="872.24" waitingTime="32.00" waitingCount="1" stopTime="0.00" timeLoss="54.79" rerouteNo="0" devices="tripinfo_f_5.2" vType="DEFAULT_VEHTYPE" speedFactor="1.18" vaporized=""/>
    <tripinfo id="f_2.2" depart="900.00" departLane="E7_0" departPos="5.10" departSpeed="0.00" departDelay="0.00" arrival="1018.00" arrivalLane="E23_0" arrivalPos="89.60" arrivalSpeed="5.71" duration="118.00" routeLength="863.67" waitingTime="26.00" waitingCount="2" stopTime="0.00" timeLoss="61.12" rerouteNo="0" devices="tripinfo_f_2.2" vType="DEFAULT_VEHTYPE" speedFactor="1.13" vaporized=""/>
    <tripinfo id="f_10.2" depart="900.00" departLane="E19_0" departPos="5.10" departSpeed="0.00" departDelay="0.00" arrival="1025.00" arrivalLane="E22_0" arrivalPos="92.00" arrivalSpeed="13.40" duration="125.00" routeLength="870.69" waitingTime="31.00" waitingCount="2" stopTime="0.00" timeLoss="60.59" rerouteNo="0" devices="tripinfo_f_10.2" vType="DEFAULT_VEHTYPE" speedFactor="1.01" vaporized=""/>
    <tripinfo id="f_1.2" depart="800.00" departLane="E6_0" departPos="5.10" departSpeed="0.00" departDelay="0.00" arrival="1029.00" arrivalLane="E22_0" arrivalPos="92.00" arrivalSpeed="11.48" duration="229.00" routeLength="863.95" waitingTime="111.00" waitingCount="6" stopTime="0.00" timeLoss="155.44" rerouteNo="0" devices="tripinfo_f_1.2" vType="DEFAULT_VEHTYPE" speedFactor="0.89" vaporized=""/>
    <tripinfo id="f_4.2" depart="905.00" departLane="E23_0" departPos="5.10" departSpeed="0.00" departDelay="5.00" arrival="1065.00" arrivalLane="E11_0" arrivalPos="92.00" arrivalSpeed="12.92" duration="160.00" routeLength="874.69" waitingTime="65.00" waitingCount="2" stopTime="0.00" timeLoss="89.34" rerouteNo="0" devices="tripinfo_f_4.2" vType="DEFAULT_VEHTYPE" speedFactor="0.93" vaporized=""/>
    <tripinfo id="f_8.3" depart="1200.00" departLane="E7_0" departPos="5.10" departSpeed="0.00" departDelay="0.00" arrival="1286.00" arrivalLane="E23_0" arrivalPos="89.60" arrivalSpeed="16.27" duration="86.00" routeLength="863.67" waitingTime="5.00" waitingCount="1" stopTime="0.00" timeLoss="32.52" rerouteNo="0" devices="tripinfo_f_8.3" vType="DEFAULT_VEHTYPE" speedFactor="1.18" vaporized=""/>
    <tripinfo id="f_0.3" depart="1200.00" departLane="E21_0" departPos="5.10" departSpeed="0.00" departDelay="0.00" arrival="1293.00" arrivalLane="E21_0" arrivalPos="89.60" arrivalSpeed="6.16" duration="93.00" routeLength="866.12" waitingTime="15.00" waitingCount="1" stopTime="0.00" timeLoss="38.87" rerouteNo="0" devices="tripinfo_f_0.3" vType="DEFAULT_VEHTYPE" speedFactor="1.17" vaporized=""/>
    <tripinfo id="f_3.3" depart="1203.00" departLane="E21_0" departPos="5.10" departSpeed="0.00" departDelay="3.00" arrival="1311.00" arrivalLane="E9_0" arrivalPos="85.60" arrivalSpeed="13.89" duration="108.00" routeLength="857.78" waitingTime="15.00" waitingCount="3" stopTime="0.00" timeLoss="44.32" rerouteNo="0" devices="tripinfo_f_3.3" vType="DEFAULT_VEHTYPE" speedFactor="1.02" vaporized=""/>
    <tripinfo id="f_9.3" depart="1200.00" departLane="E20_0" departPos="5.10" departSpeed="0.00" departDelay="0.00" arrival="1337.00" arrivalLane="E8_0" arrivalPos="92.00" arrivalSpeed="14.64" duration="137.00" routeLength="872.75" waitingTime="50.00" waitingCount="2" stopTime="0.00" timeLoss="78.36" rerouteNo="0" devices="tripinfo_f_9.3" vType="DEFAULT_VEHTYPE" speedFactor="1.10" vaporized=""/>
    <tripinfo id="f_6.3" depart="1200.00" departLane="E4_0" departPos="5.10" departSpeed="0.00" departDelay="0.00" arrival="1349.00" arrivalLane="E20_0" arrivalPos="89.60" arrivalSpeed="7.33" duration="149.00" routeLength="864.57" waitingTime="52.00" waitingCount="3" stopTime="0.00" timeLoss="82.81" rerouteNo="0" devices="tripinfo_f_6.3" vType="DEFAULT_VEHTYPE" speedFactor="0.97" vaporized=""/>
    <tripinfo id="f_1.3" depart="1200.00" departLane="E6_0" departPos="5.10" departSpeed="0.00" departDelay="0.00" arrival="1363.00" arrivalLane="E22_0" arrivalPos="92.00" arrivalSpeed="13.59" duration="163.00" routeLength="863.95" waitingTime="70.00" waitingCount="3" stopTime="0.00" timeLoss="98.29" rerouteNo="0" devices="tripinfo_f_1.3" vType="DEFAULT_VEHTYPE" speedFactor="0.99" vaporized=""/>
    <tripinfo id="f_4.3" depart="1350.00" departLane="E23_0" departPos="5.10" departSpeed="0.00" departDelay="0.00" arrival="1447.00" arrivalLane="E11_0" arrivalPos="92.00" arrivalSpeed="13.53" duration="97.00" routeLength="874.69" waitingTime="16.00" waitingCount="1" stopTime="0.00" timeLoss="33.72" rerouteNo="0" devices="tripinfo_f_4.3" vType="DEFAULT_VEHTYPE" speedFactor="1.03" vaporized=""/>
    <tripinfo id="f_5.3" depart="1350.00" departLane="E22_0" departPos="5.10" departSpeed="0.00" departDelay="0.00" arrival="1448.00" arrivalLane="E6_0" arrivalPos="89.60" arrivalSpeed="13.25" duration="98.00" routeLength="872.24" waitingTime="5.00" waitingCount="1" stopTime="0.00" timeLoss="30.94" rerouteNo="0" devices="tripinfo_f_5.3" vType="DEFAULT_VEHTYPE" speedFactor="0.96" vaporized=""/>
    <tripinfo id="f_7.3" depart="1350.00" departLane="E1_0" departPos="5.10" departSpeed="0.00" departDelay="0.00" arrival="1492.00" arrivalLane="E17_0" arrivalPos="89.60" arrivalSpeed="15.09" duration="142.00" routeLength="866.35" waitingTime="46.00" waitingCount="3" stopTime="0.00" timeLoss="82.22" rerouteNo="0" devices="tripinfo_f_7.3" vType="DEFAULT_VEHTYPE" speedFactor="1.09" vaporized=""/>
    <tripinfo id="f_10.3" depart="1350.00" departLane="E19_0" departPos="5.10" departSpeed="0.00" departDelay="0.00" arrival="1492.00" arrivalLane="E22_0" arrivalPos="92.00" arrivalSpeed="13.89" duration="142.00" routeLength="870.69" waitingTime="50.00" waitingCount="3" stopTime="0.00" timeLoss="79.64" rerouteNo="0" devices="tripinfo_f_10.3" vType="DEFAULT_VEHTYPE" speedFactor="1.04" vaporized=""/>
    <tripinfo id="f_2.3" depart="1350.00" departLane="E7_0" departPos="5.10" departSpeed="0.00" departDelay="0.00" arrival="1534.00" arrivalLane="E23_0" arrivalPos="89.60" arrivalSpeed="12.03" duration="184.00" routeLength="863.67" waitingTime="82.00" waitingCount="4" stopTime="0.00" timeLoss="113.90" rerouteNo="0" devices="tripinfo_f_2.3" vType="DEFAULT_VEHTYPE" speedFactor="0.90" vaporized=""/>
    <tripinfo id="f_8.4" depart="1600.00" departLane="E7_0" departPos="5.10" departSpeed="0.00" departDelay="0.00" arrival="1719.00" arrivalLane="E23_0" arrivalPos="89.60" arrivalSpeed="6.04" duration="119.00" routeLength="863.67" waitingTime="16.00" waitingCount="3" stopTime="0.00" timeLoss="45.50" rerouteNo="0" devices="tripinfo_f_8.4" vType="DEFAULT_VEHTYPE" speedFactor="0.88" vaporized=""/>
    <tripinfo id="f_6.4" depart="1600.00" departLane="E4_0" departPos="5.10" departSpeed="0.00" departDelay="0.00" arrival="1725.00" arrivalLane="E20_0" arrivalPos="89.60" arrivalSpeed="11.88" duration="125.00" routeLength="864.57" waitingTime="26.00" waitingCount="2" stopTime="0.00" timeLoss="53.43" rerouteNo="0" devices="tripinfo_f_6.4" vType="DEFAULT_VEHTYPE" speedFactor="0.90" vaporized=""/>
    <tripinfo id="f_1.4" depart="1600.00" departLane="E6_0" departPos="5.10" departSpeed="0.00" departDelay="0.00" arrival="1726.00" arrivalLane="E22_0" arrivalPos="92.00" arrivalSpeed="14.81" duration="126.00" routeLength="863.95" waitingTime="34.00" waitingCount="3" stopTime="0.00" timeLoss="66.33" rerouteNo="0" devices="tripinfo_f_1.4" vType="DEFAULT_VEHTYPE" speedFactor="1.09" vaporized=""/>
    <tripinfo id="f_9.4" depart="1600.00" departLane="E20_0" departPos="5.10" departSpeed="0.00" departDelay="0.00" arrival="1734.00" arrivalLane="E8_0" arrivalPos="92.00" arrivalSpeed="11.55" duration="134.00" routeLength="872.75" waitingTime="29.00" waitingCount="3" stopTime="0.00" timeLoss="56.18" rerouteNo="0" devices="tripinfo_f_9.4" vType="DEFAULT_VEHTYPE" speedFactor="0.85" vaporized=""/>
    <tripinfo id="f_0.4" depart="1600.00" departLane="E21_0" departPos="5.10" departSpeed="0.00" departDelay="0.00" arrival="1738.00" arrivalLane="E21_0" arrivalPos="89.60" arrivalSpeed="13.22" duration="138.00" routeLength="866.12" waitingTime="44.00" waitingCount="3" stopTime="0.00" timeLoss="76.14" rerouteNo="0" devices="tripinfo_f_0.4" vType="DEFAULT_VEHTYPE" speedFactor="1.04" vaporized=""/>
    <tripinfo id="f_3.4" depart="1603.00" departLane="E21_0" departPos="5.10" departSpeed="0.00" departDelay="3.00" arrival="1777.00" arrivalLane="E9_0" arrivalPos="85.60" arrivalSpeed="13.50" duration="174.00" routeLength="857.78" waitingTime="77.00" waitingCount="2" stopTime="0.00" timeLoss="108.33" rerouteNo="0" devices="tripinfo_f_3.4" vType="DEFAULT_VEHTYPE" speedFactor="1.00" vaporized=""/>
    <tripinfo id="f_2.4" depart="1800.00" departLane="E7_0" departPos="5.10" departSpeed="0.00" departDelay="0.00" arrival="1909.00" arrivalLane="E23_0" arrivalPos="89.60" arrivalSpeed="10.61" duration="109.00" routeLength="863.67" waitingTime="10.00" waitingCount="1" stopTime="0.00" timeLoss="33.22" rerouteNo="0" devices="tripinfo_f_2.4" vType="DEFAULT_VEHTYPE" speedFactor="0.85" vaporized=""/>
    <tripinfo id="f_5.4" depart="1800.00" departLane="E22_0" departPos="5.10" departSpeed="0.00" departDelay="0.00" arrival="1914.00" arrivalLane="E6_0" arrivalPos="89.60" arrivalSpeed="12.82" duration="114.00" routeLength="872.24" waitingTime="24.00" waitingCount="2" stopTime="0.00" timeLoss="50.55" rerouteNo="0" devices="tripinfo_f_5.4" vType="DEFAULT_VEHTYPE" speedFactor="1.02" vaporized=""/>
    <tripinfo id="f_10.4" depart="1800.00" departLane="E19_0" departPos="5.10" departSpeed="0.00" departDelay="0.00" arrival="1920.00" arrivalLane="E22_0" arrivalPos="92.00" arrivalSpeed="12.89" duration="120.00" routeLength="870.69" waitingTime="35.00" waitingCount="1" stopTime="0.00" timeLoss="56.25" rerouteNo="0" devices="tripinfo_f_10.4" vType="DEFAULT_VEHTYPE" speedFactor="1.00" vaporized=""/>
    <tripinfo id="f_4.4" depart="1800.00" departLane="E23_0" departPos="5.10" departSpeed="0.00" departDelay="0.00" arrival="1931.00" arrivalLane="E11_0" arrivalPos="92.00" arrivalSpeed="16.05" duration="131.00" routeLength="874.69" waitingTime="41.00" waitingCount="3" stopTime="0.00" timeLoss="76.35" rerouteNo="0" devices="tripinfo_f_4.4" vType="DEFAULT_VEHTYPE" speedFactor="1.17" vaporized=""/>
    <tripinfo id="f_7.4" depart="1800.00" departLane="E1_0" departPos="5.10" departSpeed="0.00" departDelay="0.00" arrival="1947.00" arrivalLane="E17_0" arrivalPos="89.60" arrivalSpeed="14.42" duration="147.00" routeLength="866.35" waitingTime="59.00" waitingCount="2" stopTime="0.00" timeLoss="88.12" rerouteNo="0" devices="tripinfo_f_7.4" vType="DEFAULT_VEHTYPE" speedFactor="1.10" vaporized=""/>
    <tripinfo id="f_0.5" depart="2000.00" departLane="E21_0" departPos="5.10" departSpeed="0.00" departDelay="0.00" arrival="2082.00" arrivalLane="E21_0" arrivalPos="89.60" arrivalSpeed="12.82" duration="82.00" routeLength="866.12" waitingTime="0.00" waitingCount="0" stopTime="0.00" timeLoss="16.86" rerouteNo="0" devices="tripinfo_f_0.5" vType="DEFAULT_VEHTYPE" speedFactor="1.00" vaporized=""/>
    <tripinfo id="f_9.5" depart="2000.00" departLane="E20_0" departPos="5.10" departSpeed="0.00" departDelay="0.00" arrival="2116.00" arrivalLane="E8_0" arrivalPos="92.00" arrivalSpeed="15.02" duration="116.00" routeLength="872.75" waitingTime="23.00" waitingCount="3" stopTime="0.00" timeLoss="55.64" rerouteNo="0" devices="tripinfo_f_9.5" vType="DEFAULT_VEHTYPE" speedFactor="1.08" vaporized=""/>
    <tripinfo id="f_3.5" depart="2003.00" departLane="E21_0" departPos="5.10" departSpeed="0.00" departDelay="3.00" arrival="2148.00" arrivalLane="E9_0" arrivalPos="85.60" arrivalSpeed="14.93" duration="145.00" routeLength="857.78" waitingTime="49.00" waitingCount="2" stopTime="0.00" timeLoss="88.47" rerouteNo="0" devices="tripinfo_f_3.5" vType="DEFAULT_VEHTYPE" speedFactor="1.14" vaporized=""/>
    <tripinfo id="f_6.5" depart="2000.00" departLane="E4_0" departPos="5.10" departSpeed="0.00" departDelay="0.00" arrival="2155.00" arrivalLane="E20_0" arrivalPos="89.60" arrivalSpeed="7.13" duration="155.00" routeLength="864.57" waitingTime="61.00" waitingCount="3" stopTime="0.00" timeLoss="91.36" rerouteNo="0" devices="tripinfo_f_6.5" vType="DEFAULT_VEHTYPE" speedFactor="1.02" vaporized=""/>
    <tripinfo id="f_8.5" depart="2000.00" departLane="E7_0" departPos="5.10" departSpeed="0.00" departDelay="0.00" arrival="2157.00" arrivalLane="E23_0" arrivalPos="89.60" arrivalSpeed="12.37" duration="157.00" routeLength="863.67" waitingTime="61.00" waitingCount="3" stopTime="0.00" timeLoss="91.39" rerouteNo="0" devices="tripinfo_f_8.5" vType="DEFAULT_VEHTYPE" speedFactor="0.97" vaporized=""/>
    <tripinfo id="f_1.5" depart="2000.00" departLane="E6_0" departPos="5.10" departSpeed="0.00" departDelay="0.00" arrival="2170.00" arrivalLane="E22_0" arrivalPos="92.00" arrivalSpeed="12.15" duration="170.00" routeLength="863.95" waitingTime="71.00" waitingCount="3" stopTime="0.00" timeLoss="97.90" rerouteNo="0" devices="tripinfo_f_1.5" vType="DEFAULT_VEHTYPE" speedFactor="0.90" vaporized=""/>
    <tripinfo id="f_2.5" depart="2250.00" departLane="E7_0" departPos="5.10" departSpeed="0.00" departDelay="0.00" arrival="2351.00" arrivalLane="E23_0" arrivalPos="89.60" arrivalSpeed="14.61" duration="101.00" routeLength="863.67" waitingTime="14.00" waitingCount="2" stopTime="0.00" timeLoss="44.41" rerouteNo="0" devices="tripinfo_f_2.5" vType="DEFAULT_VEHTYPE" speedFactor="1.12" vaporized=""/>
    <tripinfo id="f_4.5" depart="2250.00" departLane="E23_0" departPos="5.10" departSpeed="0.00" departDelay="0.00" arrival="2369.00" arrivalLane="E11_0" arrivalPos="92.00" arrivalSpeed="13.65" duration="119.00" routeLength="874.69" waitingTime="29.00" waitingCount="2" stopTime="0.00" timeLoss="55.39" rerouteNo="0" devices="tripinfo_f_4.5" vType="DEFAULT_VEHTYPE" speedFactor="1.02" vaporized=""/>
    <tripinfo id="f_5.5" depart="2250.00" departLane="E22_0" departPos="5.10" departSpeed="0.00" departDelay="0.00" arrival="2375.00" arrivalLane="E6_0" arrivalPos="89.60" arrivalSpeed="12.78" duration="125.00" routeLength="872.24" waitingTime="38.00" waitingCount="1" stopTime="0.00" timeLoss="60.32" rerouteNo="0" devices="tripinfo_f_5.5" vType="DEFAULT_VEHTYPE" speedFactor="0.99" vaporized=""/>
    <tripinfo id="f_7.5" depart="2250.00" departLane="E1_0" departPos="5.10" departSpeed="0.00" departDelay="0.00" arrival="2389.00" arrivalLane="E17_0" arrivalPos="89.60" arrivalSpeed="11.81" duration="139.00" routeLength="866.35" waitingTime="42.00" waitingCount="2" stopTime="0.00" timeLoss="69.94" rerouteNo="0" devices="tripinfo_f_7.5" vType="DEFAULT_VEHTYPE" speedFactor="0.94" vaporized=""/>
    <tripinfo id="f_10.5" depart="2250.00" departLane="E19_0" departPos="5.10" departSpeed="0.00" departDelay="0.00" arrival="2435.00" arrivalLane="E22_0" arrivalPos="92.00" arrivalSpeed="8.30" duration="185.00" routeLength="870.69" waitingTime="83.00" waitingCount="2" stopTime="0.00" timeLoss="112.34" rerouteNo="0" devices="tripinfo_f_10.5" vType="DEFAULT_VEHTYPE" speedFactor="0.88" vaporized=""/>
    <tripinfo id="f_8.6" depart="2400.00" departLane="E7_0" departPos="5.10" departSpeed="0.00" departDelay="0.00" arrival="2513.00" arrivalLane="E23_0" arrivalPos="89.60" arrivalSpeed="14.01" duration="113.00" routeLength="863.67" waitingTime="27.00" waitingCount="1" stopTime="0.00" timeLoss="49.60" rerouteNo="0" devices="tripinfo_f_8.6" vType="DEFAULT_VEHTYPE" speedFactor="1.02" vaporized=""/>
    <tripinfo id="f_0.6" depart="2400.00" departLane="E21_0" departPos="5.10" departSpeed="0.00" departDelay="0.00" arrival="2516.00" arrivalLane="E21_0" arrivalPos="89.60" arrivalSpeed="12.01" duration="116.00" routeLength="866.12" waitingTime="21.00" waitingCount="2" stopTime="0.00" timeLoss="45.54" rerouteNo="0" devices="tripinfo_f_0.6" vType="DEFAULT_VEHTYPE" speedFactor="0.91" vaporized=""/>
    <tripinfo id="f_6.6" depart="2400.00" departLane="E4_0" departPos="5.10" departSpeed="0.00" departDelay="0.00" arrival="2519.00" arrivalLane="E20_0" arrivalPos="89.60" arrivalSpeed="14.15" duration="119.00" routeLength="864.57" waitingTime="27.00" waitingCount="2" stopTime="0.00" timeLoss="56.15" rerouteNo="0" devices="tripinfo_f_6.6" vType="DEFAULT_VEHTYPE" speedFactor="1.02" vaporized=""/>
    <tripinfo id="f_9.6" depart="2400.00" departLane="E20_0" departPos="5.10" departSpeed="0.00" departDelay="0.00" arrival="2519.00" arrivalLane="E8_0" arrivalPos="92.00" arrivalSpeed="12.74" duration="119.00" routeLength="872.75" waitingTime="25.00" waitingCount="1" stopTime="0.00" timeLoss="50.88" rerouteNo="0" devices="tripinfo_f_9.6" vType="DEFAULT_VEHTYPE" speedFactor="0.97" vaporized=""/>
    <tripinfo id="f_1.6" depart="2400.00" departLane="E6_0" departPos="5.10" departSpeed="0.00" departDelay="0.00" arrival="2525.00" arrivalLane="E22_0" arrivalPos="92.00" arrivalSpeed="11.66" duration="125.00" routeLength="863.95" waitingTime="23.00" waitingCount="4" stopTime="0.00" timeLoss="54.29" rerouteNo="0" devices="tripinfo_f_1.6" vType="DEFAULT_VEHTYPE" speedFactor="0.91" vaporized=""/>
    <tripinfo id="f_3.6" depart="2403.00" departLane="E21_0" departPos="5.10" departSpeed="0.00" departDelay="3.00" arrival="2528.00" arrivalLane="E9_0" arrivalPos="85.60" arrivalSpeed="14.09" duration="125.00" routeLength="857.78" waitingTime="33.00" waitingCount="2" stopTime="0.00" timeLoss="62.87" rerouteNo="0" devices="tripinfo_f_3.6" vType="DEFAULT_VEHTYPE" speedFactor="1.04" vaporized=""/>
    <tripinfo id="f_5.6" depart="2700.00" departLane="E22_0" departPos="5.10" departSpeed="0.00" departDelay="0.00" arrival="2805.00" arrivalLane="E6_0" arrivalPos="89.60" arrivalSpeed="12.01" duration="105.00" routeLength="872.24" waitingTime="12.00" waitingCount="1" stopTime="0.00" timeLoss="37.70" rerouteNo="0" devices="tripinfo_f_5.6" vType="DEFAULT_VEHTYPE" speedFactor="0.96" vaporized=""/>