<?xml version="1.0" encoding="UTF-8"?>

<!-- generated on 2024-11-09 12:20:59 by Eclipse SUMO sumo Version 1.21.0
<sumoConfiguration xmlns:xsi="http://www.w3.org/2001/XMLSchema-instance" xsi:noNamespaceSchemaLocation="http://sumo.dlr.de/xsd/sumoConfiguration.xsd">

    <input>
        <net-file value="../sumo/test.net.xml"/>
        <route-files value="../sumo/test.rou.xml"/>
        <additional-files value="../sumo/test.add.xml"/>
    </input>

    <output>
        <tripinfo-output value="../sumo/tripinfo.xml"/>
    </output>

</sumoConfiguration>
-->

<tripinfos xmlns:xsi="http://www.w3.org/2001/XMLSchema-instance" xsi:noNamespaceSchemaLocation="http://sumo.dlr.de/xsd/tripinfo_file.xsd">
    <tripinfo id="f_6.0" depart="0.00" departLane="E10_0" departPos="5.10" departSpeed="0.00" departDelay="0.00" arrival="79.00" arrivalLane="E20_0" arrivalPos="89.60" arrivalSpeed="13.38" duration="79.00" routeLength="780.06" waitingTime="6.00" waitingCount="1" stopTime="0.00" timeLoss="24.36" rerouteNo="0" devices="tripinfo_f_6.0" vType="DEFAULT_VEHTYPE" speedFactor="1.05" vaporized=""/>
    <tripinfo id="f_1.0" depart="0.00" departLane="E17_0" departPos="5.10" departSpeed="0.00" departDelay="0.00" arrival="91.00" arrivalLane="E0_0" arrivalPos="89.60" arrivalSpeed="12.87" duration="91.00" routeLength="760.75" waitingTime="6.00" waitingCount="1" stopTime="0.00" timeLoss="30.06" rerouteNo="0" devices="tripinfo_f_1.0" vType="DEFAULT_VEHTYPE" speedFactor="0.94" vaporized=""/>
    <tripinfo id="f_9.0" depart="0.00" departLane="E18_0" departPos="5.10" departSpeed="0.00" departDelay="0.00" arrival="94.00" arrivalLane="E11_0" arrivalPos="92.00" arrivalSpeed="10.71" duration="94.00" routeLength="765.32" waitingTime="8.00" waitingCount="1" stopTime="0.00" timeLoss="26.90" rerouteNo="0" devices="tripinfo_f_9.0" vType="DEFAULT_VEHTYPE" speedFactor="0.86" vaporized=""/>
    <tripinfo id="f_2.0" depart="0.00" departLane="E13_0" departPos="5.10" departSpeed="0.00" departDelay="0.00" arrival="95.00" arrivalLane="E15_0" arrivalPos="92.00" arrivalSpeed="13.56" duration="95.00" routeLength="773.89" waitingTime="18.00" waitingCount="1" stopTime="0.00" timeLoss="38.61" rerouteNo="0" devices="tripinfo_f_2.0" vType="DEFAULT_VEHTYPE" speedFactor="1.01" vaporized=""/>
    <tripinfo id="f_4.0" depart="0.00" departLane="E1_0" departPos="5.10" departSpeed="0.00" departDelay="0.00" arrival="95.00" arrivalLane="E0_0" arrivalPos="89.60" arrivalSpeed="13.60" duration="95.00" routeLength="765.32" waitingTime="10.00" waitingCount="2" stopTime="0.00" timeLoss="38.45" rerouteNo="0" devices="tripinfo_f_4.0" vType="DEFAULT_VEHTYPE" speedFactor="1.03" vaporized=""/>
    <tripinfo id="f_5.0" depart="0.00" departLane="E19_0" departPos="5.10" departSpeed="0.00" departDelay="0.00" arrival="95.00" arrivalLane="E14_0" arrivalPos="85.60" arrivalSpeed="11.10" duration="95.00" routeLength="756.75" waitingTime="4.00" waitingCount="1" stopTime="0.00" timeLoss="25.68" rerouteNo="0" devices="tripinfo_f_5.0" vType="DEFAULT_VEHTYPE" speedFactor="0.83" vaporized=""/>
    <tripinfo id="f_8.0" depart="3.00" departLane="E17_0" departPos="5.10" departSpeed="0.00" departDelay="3.00" arrival="106.00" arrivalLane="E9_0" arrivalPos="85.60" arrivalSpeed="11.83" duration="103.00" routeLength="771.49" waitingTime="20.00" waitingCount="1" stopTime="0.00" timeLoss="41.54" rerouteNo="0" devices="tripinfo_f_8.0" vType="DEFAULT_VEHTYPE" speedFactor="0.94" vaporized=""/>
    <tripinfo id="f_7.0" depart="0.00" departLane="E23_0" departPos="5.10" departSpeed="0.00" departDelay="0.00" arrival="155.00" arrivalLane="E20_0" arrivalPos="89.60" arrivalSpeed="11.20" duration="155.00" routeLength="780.85" waitingTime="58.00" waitingCount="3" stopTime="0.00" timeLoss="87.19" rerouteNo="0" devices="tripinfo_f_7.0" vType="DEFAULT_VEHTYPE" speedFactor="0.89" vaporized=""/>
    <tripinfo id="f_3.0" depart="0.00" departLane="E14_0" departPos="5.10" departSpeed="0.00" departDelay="0.00" arrival="156.00" arrivalLane="E20_0" arrivalPos="89.60" arrivalSpeed="13.54" duration="156.00" routeLength="783.25" waitingTime="51.00" waitingCount="4" stopTime="0.00" timeLoss="100.88" rerouteNo="0" devices="tripinfo_f_3.0" vType="DEFAULT_VEHTYPE" speedFactor="1.08" vaporized=""/>
    <tripinfo id="f_0.0" depart="0.00" departLane="E12_0" departPos="5.10" departSpeed="0.00" departDelay="0.00" arrival="175.00" arrivalLane="E15_0" arrivalPos="92.00" arrivalSpeed="13.50" duration="175.00" routeLength="774.40" waitingTime="87.00" waitingCount="3" stopTime="0.00" timeLoss="119.71" rerouteNo="0" devices="tripinfo_f_0.0" vType="DEFAULT_VEHTYPE" speedFactor="1.06" vaporized=""/>
    <tripinfo id="f_3.1" depart="277.00" departLane="E14_0" departPos="5.10" departSpeed="0.00" departDelay="0.08" arrival="441.00" arrivalLane="E20_0" arrivalPos="89.60" arrivalSpeed="14.55" duration="164.00" routeLength="783.25" waitingTime="75.00" waitingCount="4" stopTime="0.00" timeLoss="109.63" rerouteNo="0" devices="tripinfo_f_3.1" vType="DEFAULT_VEHTYPE" speedFactor="1.09" vaporized=""/>
    <tripinfo id="f_2.1" depart="328.00" departLane="E13_0" departPos="5.10" departSpeed="0.00" departDelay="0.73" arrival="500.00" arrivalLane="E15_0" arrivalPos="92.00" arrivalSpeed="13.92" duration="172.00" routeLength="773.89" waitingTime="83.00" waitingCount="3" stopTime="0.00" timeLoss="115.84" rerouteNo="0" devices="tripinfo_f_2.1" vType="DEFAULT_VEHTYPE" speedFactor="1.03" vaporized=""/>
    <tripinfo id="f_4.1" depart="400.00" departLane="E1_0" departPos="5.10" departSpeed="0.00" departDelay="0.00" arrival="510.00" arrivalLane="E0_0" arrivalPos="89.60" arrivalSpeed="13.48" duration="110.00" routeLength="765.32" waitingTime="30.00" waitingCount="3" stopTime="0.00" timeLoss="56.13" rerouteNo="0" devices="tripinfo_f_4.1" vType="DEFAULT_VEHTYPE" speedFactor="1.05" vaporized=""/>
    <tripinfo id="f_5.1" depart="450.00" departLane="E19_0" departPos="5.10" departSpeed="0.00" departDelay="0.00" arrival="535.00" arrivalLane="E14_0" arrivalPos="85.60" arrivalSpeed="14.48" duration="85.00" routeLength="756.75" waitingTime="8.00" waitingCount="2" stopTime="0.00" timeLoss="34.56" rerouteNo="0" devices="tripinfo_f_5.1" vType="DEFAULT_VEHTYPE" speedFactor="1.12" vaporized=""/>
    <tripinfo id="f_8.1" depart="450.00" departLane="E17_0" departPos="5.10" departSpeed="0.00" departDelay="0.00" arrival="553.00" arrivalLane="E9_0" arrivalPos="85.60" arrivalSpeed="13.44" duration="103.00" routeLength="771.49" waitingTime="19.00" waitingCount="1" stopTime="0.00" timeLoss="45.29" rerouteNo="0" devices="tripinfo_f_8.1" vType="DEFAULT_VEHTYPE" speedFactor="0.99" vaporized=""/>
    <tripinfo id="f_3.2" depart="554.00" departLane="E14_0" departPos="5.10" departSpeed="0.00" departDelay="0.15" arrival="711.00" arrivalLane="E20_0" arrivalPos="89.60" arrivalSpeed="12.29" duration="157.00" routeLength="783.25" waitingTime="62.00" waitingCount="4" stopTime="0.00" timeLoss="92.70" rerouteNo="0" devices="tripinfo_f_3.2" vType="DEFAULT_VEHTYPE" speedFactor="0.93" vaporized=""/>
    <tripinfo id="f_7.1" depart="600.00" departLane="E23_0" departPos="5.10" departSpeed="0.00" departDelay="0.00" arrival="730.00" arrivalLane="E20_0" arrivalPos="89.60" arrivalSpeed="12.10" duration="130.00" routeLength="780.85" waitingTime="42.00" waitingCount="3" stopTime="0.00" timeLoss="66.78" rerouteNo="0" devices="tripinfo_f_7.1" vType="DEFAULT_VEHTYPE" speedFactor="0.94" vaporized=""/>
    <tripinfo id="f_0.1" depart="600.00" departLane="E12_0" departPos="5.10" departSpeed="0.00" departDelay="0.00" arrival="742.00" arrivalLane="E15_0" arrivalPos="92.00" arrivalSpeed="11.72" duration="142.00" routeLength="774.40" waitingTime="45.00" waitingCount="4" stopTime="0.00" timeLoss="76.00" rerouteNo="0" devices="tripinfo_f_0.1" vType="DEFAULT_VEHTYPE" speedFactor="0.88" vaporized=""/>
    <tripinfo id="f_2.2" depart="655.00" departLane="E13_0" departPos="5.10" departSpeed="0.00" departDelay="0.46" arrival="805.00" arrivalLane="E15_0" arrivalPos="92.00" arrivalSpeed="12.80" duration="150.00" routeLength="773.89" waitingTime="58.00" waitingCount="3" stopTime="0.00" timeLoss="88.31" rerouteNo="0" devices="tripinfo_f_2.2" vType="DEFAULT_VEHTYPE" speedFactor="0.94" vaporized=""/>
    <tripinfo id="f_4.2" depart="800.00" departLane="E1_0" departPos="5.10" departSpeed="0.00" departDelay="0.00" arrival="929.00" arrivalLane="E0_0" arrivalPos="89.60" arrivalSpeed="15.52" duration="129.00" routeLength="765.32" waitingTime="43.00" waitingCount="4" stopTime="0.00" timeLoss="80.38" rerouteNo="0" devices="tripinfo_f_4.2" vType="DEFAULT_VEHTYPE" speedFactor="1.16" vaporized=""/>
    <tripinfo id="f_3.3" depart="831.00" departLane="E14_0" departPos="5.10" departSpeed="0.00" departDelay="0.23" arrival="1018.00" arrivalLane="E20_0" arrivalPos="89.60" arrivalSpeed="13.97" duration="187.00" routeLength="783.25" waitingTime="95.00" waitingCount="5" stopTime="0.00" timeLoss="128.52" rerouteNo="0" devices="tripinfo_f_3.3" vType="DEFAULT_VEHTYPE" speedFactor="1.02" vaporized=""/>
    <tripinfo id="f_8.2" depart="900.00" departLane="E17_0" departPos="5.10" departSpeed="0.00" departDelay="0.00" arrival="1034.00" arrivalLane="E9_0" arrivalPos="85.60" arrivalSpeed="13.08" duration="134.00" routeLength="771.49" waitingTime="47.00" waitingCount="3" stopTime="0.00" timeLoss="74.45" rerouteNo="0" devices="tripinfo_f_8.2" vType="DEFAULT_VEHTYPE" speedFactor="0.97" vaporized=""/>
    <tripinfo id="f_5.2" depart="900.00" departLane="E19_0" departPos="5.10" departSpeed="0.00" departDelay="0.00" arrival="1063.00" arrivalLane="E14_0" arrivalPos="85.60" arrivalSpeed="13.89" duration="163.00" routeLength="756.75" waitingTime="78.00" waitingCount="3" stopTime="0.00" timeLoss="105.66" rerouteNo="0" devices="tripinfo_f_5.2" vType="DEFAULT_VEHTYPE" speedFactor="1.01" vaporized=""/>
    <tripinfo id="f_2.3" depart="982.00" departLane="E13_0" departPos="5.10" departSpeed="0.00" departDelay="0.18" arrival="1112.00" arrivalLane="E15_0" arrivalPos="92.00" arrivalSpeed="11.57" duration="130.00" routeLength="773.89" waitingTime="40.00" waitingCount="2" stopTime="0.00" timeLoss="64.66" rerouteNo="0" devices="tripinfo_f_2.3" vType="DEFAULT_VEHTYPE" speedFactor="0.89" vaporized=""/>
    <tripinfo id="f_3.4" depart="1108.00" departLane="E14_0" departPos="5.10" departSpeed="0.00" departDelay="0.31" arrival="1223.00" arrivalLane="E20_0" arrivalPos="89.60" arrivalSpeed="10.26" duration="115.00" routeLength="783.25" waitingTime="23.00" waitingCount="1" stopTime="0.00" timeLoss="42.10" rerouteNo="0" devices="tripinfo_f_3.4" vType="DEFAULT_VEHTYPE" speedFactor="0.83" vaporized=""/>
    <tripinfo id="f_4.3" depart="1200.00" departLane="E1_0" departPos="5.10" departSpeed="0.00" departDelay="0.00" arrival="1319.00" arrivalLane="E0_0" arrivalPos="89.60" arrivalSpeed="11.51" duration="119.00" routeLength="765.32" waitingTime="34.00" waitingCount="2" stopTime="0.00" timeLoss="57.08" rerouteNo="0" devices="tripinfo_f_4.3" vType="DEFAULT_VEHTYPE" speedFactor="0.92" vaporized=""/>
    <tripinfo id="f_0.2" depart="1200.00" departLane="E12_0" departPos="5.10" departSpeed="0.00" departDelay="0.00" arrival="1345.00" arrivalLane="E15_0" arrivalPos="92.00" arrivalSpeed="5.38" duration="145.00" routeLength="774.40" waitingTime="44.00" waitingCount="4" stopTime="0.00" timeLoss="76.86" rerouteNo="0" devices="tripinfo_f_0.2" vType="DEFAULT_VEHTYPE" speedFactor="0.87" vaporized=""/>
    <tripinfo id="f_7.2" depart="1200.00" departLane="E23_0" departPos="5.10" departSpeed="0.00" departDelay="0.00" arrival="1370.00" arrivalLane="E20_0" arrivalPos="89.60" arrivalSpeed="12.33" duration="170.00" routeLength="780.85" waitingTime="77.00" waitingCount="4" stopTime="0.00" timeLoss="107.62" rerouteNo="0" devices="tripinfo_f_7.2" vType="DEFAULT_VEHTYPE" speedFactor="0.95" vaporized=""/>
    <tripinfo id="f_8.3" depart="1350.00" departLane="E17_0" departPos="5.10" departSpeed="0.00" departDelay="0.00" arrival="1449.00" arrivalLane="E9_0" arrivalPos="85.60" arrivalSpeed="15.44" duration="99.00" routeLength="771.49" waitingTime="20.00" waitingCount="3" stopTime="0.00" timeLoss="50.82" rerouteNo="0" devices="tripinfo_f_8.3" vType="DEFAULT_VEHTYPE" speedFactor="1.18" vaporized=""/>
    <tripinfo id="f_2.4" depart="1310.00" departLane="E13_0" departPos="5.10" departSpeed="0.00" departDelay="0.91" arrival="1468.00" arrivalLane="E15_0" arrivalPos="92.00" arrivalSpeed="15.55" duration="158.00" routeLength="773.89" waitingTime="74.00" waitingCount="2" stopTime="0.00" timeLoss="107.35" rerouteNo="0" devices="tripinfo_f_2.4" vType="DEFAULT_VEHTYPE" speedFactor="1.13" vaporized=""/>
    <tripinfo id="f_5.3" depart="1350.00" departLane="E19_0" departPos="5.10" departSpeed="0.00" departDelay="0.00" arrival="1514.00" arrivalLane="E14_0" arrivalPos="85.60" arrivalSpeed="12.44" duration="164.00" routeLength="756.75" waitingTime="77.00" waitingCount="3" stopTime="0.00" timeLoss="102.77" rerouteNo="0" devices="tripinfo_f_5.3" vType="DEFAULT_VEHTYPE" speedFactor="0.93" vaporized=""/>
    <tripinfo id="f_3.5" depart="1385.00" departLane="E14_0" departPos="5.10" departSpeed="0.00" departDelay="0.39" arrival="1561.00" arrivalLane="E20_0" arrivalPos="89.60" arrivalSpeed="15.54" duration="176.00" routeLength="783.25" waitingTime="91.00" waitingCount="5" stopTime="0.00" timeLoss="124.93" rerouteNo="0" devices="tripinfo_f_3.5" vType="DEFAULT_VEHTYPE" speedFactor="1.15" vaporized=""/>
    <tripinfo id="f_4.4" depart="1600.00" departLane="E1_0" departPos="5.10" departSpeed="0.00" departDelay="0.00" arrival="1735.00" arrivalLane="E0_0" arrivalPos="89.60" arrivalSpeed="12.74" duration="135.00" routeLength="765.32" waitingTime="45.00" waitingCount="3" stopTime="0.00" timeLoss="78.54" rerouteNo="0" devices="tripinfo_f_4.4" vType="DEFAULT_VEHTYPE" speedFactor="1.01" vaporized=""/>
    <tripinfo id="f_2.5" depart="1637.00" departLane="E13_0" departPos="5.10" departSpeed="0.00" departDelay="0.64" arrival="1774.00" arrivalLane="E15_0" arrivalPos="92.00" arrivalSpeed="15.97" duration="137.00" routeLength="773.89" waitingTime="55.00" waitingCount="3" stopTime="0.00" timeLoss="88.11" rerouteNo="0" devices="tripinfo_f_2.5" vType="DEFAULT_VEHTYPE" speedFactor="1.17" vaporized=""/>
    <tripinfo id="f_3.6" depart="1662.00" departLane="E14_0" departPos="5.10" departSpeed="0.00" departDelay="0.46" arrival="1825.00" arrivalLane="E20_0" arrivalPos="89.60" arrivalSpeed="13.19" duration="163.00" routeLength="783.25" waitingTime="73.00" waitingCount="4" stopTime="0.00" timeLoss="103.00" rerouteNo="0" devices="tripinfo_f_3.6" vType="DEFAULT_VEHTYPE" speedFactor="0.99" vaporized=""/>
    <tripinfo id="f_9.1" depart="1800.00" departLane="E18_0" departPos="5.10" departSpeed="0.00" departDelay="0.00" arrival="1882.00" arrivalLane="E11_0" arrivalPos="92.00" arrivalSpeed="13.22" duration="82.00" routeLength="765.32" waitingTime="4.00" waitingCount="1" stopTime="0.00" timeLoss="27.35" rerouteNo="0" devices="tripinfo_f_9.1" vType="DEFAULT_VEHTYPE" speedFactor="1.03" vaporized=""/>
    <tripinfo id="f_6.1" depart="1800.00" departLane="E10_0" departPos="5.10" departSpeed="0.00" departDelay="0.00" arrival="1904.00" arrivalLane="E20_0" arrivalPos="89.60" arrivalSpeed="16.30" duration="104.00" routeLength="780.06" waitingTime="31.00" waitingCount="2" stopTime="0.00" timeLoss="55.83" rerouteNo="0" devices="tripinfo_f_6.1" vType="DEFAULT_VEHTYPE" speedFactor="1.18" vaporized=""/>
    <tripinfo id="f_8.4" depart="1800.00" departLane="E17_0" departPos="5.10" departSpeed="0.00" departDelay="0.00" arrival="1930.00" arrivalLane="E9_0" arrivalPos="85.60" arrivalSpeed="11.30" duration="130.00" routeLength="771.49" waitingTime="33.00" waitingCount="3" stopTime="0.00" timeLoss="67.21" rerouteNo="0" devices="tripinfo_f_8.4" vType="DEFAULT_VEHTYPE" speedFactor="0.90" vaporized=""/>
    <tripinfo id="f_7.3" depart="1800.00" departLane="E23_0" departPos="5.10" departSpeed="0.00" departDelay="0.00" arrival="1946.00" arrivalLane="E20_0" arrivalPos="89.60" arrivalSpeed="14.13" duration="146.00" routeLength="780.85" waitingTime="60.00" waitingCount="3" stopTime="0.00" timeLoss="91.92" rerouteNo="0" devices="tripinfo_f_7.3" vType="DEFAULT_VEHTYPE" speedFactor="1.10" vaporized=""/>
    <tripinfo id="f_0.3" depart="1800.00" departLane="E12_0" departPos="5.10" departSpeed="0.00" departDelay="0.00" arrival="1951.00" arrivalLane="E15_0" arrivalPos="92.00" arrivalSpeed="13.34" duration="151.00" routeLength="774.40" waitingTime="64.00" waitingCount="4" stopTime="0.00" timeLoss="94.10" rerouteNo="0" devices="tripinfo_f_0.3" vType="DEFAULT_VEHTYPE" speedFactor="1.02" vaporized=""/>
    <tripinfo id="f_5.4" depart="1800.00" departLane="E19_0" departPos="5.10" departSpeed="0.00" departDelay="0.00" arrival="1972.00" arrivalLane="E14_0" arrivalPos="85.60" arrivalSpeed="6.56" duration="172.00" routeLength="756.75" waitingTime="79.00" waitingCount="3" stopTime="0.00" timeLoss="113.74" rerouteNo="0" devices="tripinfo_f_5.4" vType="DEFAULT_VEHTYPE" speedFactor="0.97" vaporized=""/>
    <tripinfo id="f_2.6" depart="1964.00" departLane="E13_0" departPos="5.10" departSpeed="0.00" departDelay="0.37" arrival="2080.00" arrivalLane="E15_0" arrivalPos="92.00" arrivalSpeed="13.92" duration="116.00" routeLength="773.89" waitingTime="31.00" waitingCount="3" stopTime="0.00" timeLoss="63.75" rerouteNo="0" devices="tripinfo_f_2.6" vType="DEFAULT_VEHTYPE" speedFactor="1.09" vaporized=""/>
    <tripinfo id="f_3.7" depart="1939.00" departLane="E14_0" departPos="5.10" departSpeed="0.00" departDelay="0.54" arrival="2119.00" arrivalLane="E20_0" arrivalPos="89.60" arrivalSpeed="12.64" duration="180.00" routeLength="783.25" waitingTime="88.00" waitingCount="4" stopTime="0.00" timeLoss="118.13" rerouteNo="0" devices="tripinfo_f_3.7" vType="DEFAULT_VEHTYPE" speedFactor="0.96" vaporized=""/>
    <tripinfo id="f_4.5" depart="2000.00" departLane="E1_0" departPos="5.10" departSpeed="0.00" departDelay="0.00" arrival="2155.00" arrivalLane="E0_0" arrivalPos="89.60" arrivalSpeed="13.28" duration="155.00" routeLength="765.32" waitingTime="71.00" waitingCount="3" stopTime="0.00" timeLoss="100.08" rerouteNo="0" devices="tripinfo_f_4.5" vType="DEFAULT_VEHTYPE" speedFactor="1.04" vaporized=""/>
    <tripinfo id="f_3.8" depart="2216.00" departLane="E14_0" departPos="5.10" departSpeed="0.00" departDelay="0.62" arrival="2333.00" arrivalLane="E20_0" arrivalPos="89.60" arrivalSpeed="13.92" duration="117.00" routeLength="783.25" waitingTime="37.00" waitingCount="2" stopTime="0.00" timeLoss="59.27" rerouteNo="0" devices="tripinfo_f_3.8" vType="DEFAULT_VEHTYPE" speedFactor="1.04" vaporized=""/>
    <tripinfo id="f_5.5" depart="2250.00" departLane="E19_0" departPos="5.10" departSpeed="0.00" departDelay="0.00" arrival="2337.00" arrivalLane="E14_0" arrivalPos="85.60" arrivalSpeed="14.96" duration="87.00" routeLength="756.75" waitingTime="8.00" waitingCount="1" stopTime="0.00" timeLoss="33.81" rerouteNo="0" devices="tripinfo_f_5.5" vType="DEFAULT_VEHTYPE" speedFactor="1.09" vaporized=""/>
    <tripinfo id="f_8.5" depart="2250.00" departLane="E17_0" departPos="5.10" departSpeed="0.00" departDelay="0.00" arrival="2346.00" arrivalLane="E9_0" arrivalPos="85.60" arrivalSpeed="12.90" duration="96.00" routeLength="771.49" waitingTime="14.00" waitingCount="2" stopTime="0.00" timeLoss="38.34" rerouteNo="0" devices="tripinfo_f_8.5" vType="DEFAULT_VEHTYPE" speedFactor="1.00" vaporized=""/>
    <tripinfo id="f_2.7" depart="2291.00" departLane="E13_0" departPos="5.10" departSpeed="0.00" departDelay="0.10" arrival="2438.00" arrivalLane="E15_0" arrivalPos="92.00" arrivalSpeed="12.39" duration="147.00" routeLength="773.89" waitingTime="55.00" waitingCount="2" stopTime="0.00" timeLoss="82.07" rerouteNo="0" devices="tripinfo_f_2.7" vType="DEFAULT_VEHTYPE" speedFactor="0.90" vaporized=""/>
    <tripinfo id="f_7.4" depart="2400.00" departLane="E23_0" departPos="5.10" departSpeed="0.00" departDelay="0.00" arrival="2492.00" arrivalLane="E20_0" arrivalPos="89.60" arrivalSpeed="11.18" duration="92.00" routeLength="780.85" waitingTime="4.00" waitingCount="1" stopTime="0.00" timeLoss="21.95" rerouteNo="0" devices="tripinfo_f_7.4" vType="DEFAULT_VEHTYPE" speedFactor="0.85" vaporized=""/>
    <tripinfo id="f_4.6" depart="2400.00" departLane="E1_0" departPos="5.10" departSpeed="0.00" departDelay="0.00" arrival="2508.00" arrivalLane="E0_0" arrivalPos="89.60" arrivalSpeed="11.79" duration="108.00" routeLength="765.32" waitingTime="21.00" waitingCount="1" stopTime="0.00" timeLoss="40.99" rerouteNo="0" devices="tripinfo_f_4.6" vType="DEFAULT_VEHTYPE" speedFactor="0.85" vaporized=""/>
    <tripinfo id="f_0.4" depart="2400.00" departLane="E12_0" departPos="5.10" departSpeed="0.00" departDelay="0.00" arrival="2510.00" arrivalLane="E15_0" arrivalPos="92.00" arrivalSpeed="11.64" duration="110.00" routeLength="774.40" waitingTime="19.00" waitingCount="2" stopTime="0.00" timeLoss="44.02" rerouteNo="0" devices="tripinfo_f_0.4" vType="DEFAULT_VEHTYPE" speedFactor="0.88" vaporized=""/>
    <tripinfo id="f_3.9" depart="2493.00" departLane="E14_0" departPos="5.10" departSpeed="0.00" departDelay="0.69" arrival="2681.00" arrivalLane="E20_0" arrivalPos="89.60" arrivalSpeed="15.02" duration="188.00" routeLength="783.25" waitingTime="96.00" waitingCount="6" stopTime="0.00" timeLoss="137.52" rerouteNo="0" devices="tripinfo_f_3.9" vType="DEFAULT_VEHTYPE" speedFactor="1.17" vaporized=""/>
    <tripinfo id="f_2.8" depart="2619.00" departLane="E13_0" departPos="5.10" departSpeed="0.00" departDelay="0.82" arrival="2743.00" arrivalLane="E15_0" arrivalPos="92.00" arrivalSpeed="13.15" duration="124.00" routeLength="773.89" waitingTime="42.00" waitingCount="2" stopTime="0.00" timeLoss="66.32" rerouteNo="0" devices="tripinfo_f_2.8" vType="DEFAULT_VEHTYPE" speedFactor="1.02" vaporized=""/>
    <tripinfo id="f_5.6" depart="2700.00" departLane="E19_0" departPos="5.10" departSpeed="0.00" departDelay="0.00" arrival="2788.00" arrivalLane="E14_0" arrivalPos="85.60" arrivalSpeed="14.33" duration="88.00" routeLength="756.75" waitingTime="14.00" waitingCount="1" stopTime="0.00" timeLoss="35.97" rerouteNo="0" devices="tripinfo_f_5.6" vType="DEFAULT_VEHTYPE" speedFactor="1.10" vaporized=""/>
    <tripinfo id="f_8.6" depart="2700.00" departLane="E17_0" departPos="5.10" departSpeed="0.00" departDelay="0.00" arrival="2793.00" arrivalLane="E9_0" arrivalPos="85.60" arrivalSpeed="13.91" duration="93.00" routeLength="771.49" waitingTime="16.00" waitingCount="1" stopTime="0.00" timeLoss="36.31" rerouteNo="0" devices="tripinfo_f_8.6" vType="DEFAULT_VEHTYPE" speedFactor="1.00" vaporized=""/>
    <tripinfo id="f_3.10" depart="2770.00" departLane="E14_0" departPos="5.10" departSpeed="0.00" departDelay="0.77" arrival="2942.00" arrivalLane="E20_0" arrivalPos="89.60" arrivalSpeed="12.83" duration="172.00" routeLength="783.25" waitingTime="80.00" waitingCount="4" stopTime="0.00" timeLoss="112.14" rerouteNo="0" devices="tripinfo_f_3.10" vType="DEFAULT_VEHTYPE" speedFactor="1.00" vaporized=""/>
    <tripinfo id="f_4.7" depart="2800.00" departLane="E1_0" departPos="5.10" departSpeed="0.00" departDelay="0.00" arrival="2962.00" arrivalLane="E0_0" arrivalPos="89.60" arrivalSpeed="12.08" duration="162.00" routeLength="765.32" waitingTime="68.00" waitingCount="4" stopTime="0.00" timeLoss="98.67" rerouteNo="0" devices="tripinfo_f_4.7" vType="DEFAULT_VEHTYPE" speedFactor="0.90" vaporized=""/>
    <tripinfo id="f_2.9" depart="2946.00" departLane="E13_0" departPos="5.10" departSpeed="0.00" departDelay="0.55" arrival="3049.00" arrivalLane="E15_0" arrivalPos="92.00" arrivalSpeed="14.97" duration="103.00" routeLength="773.89" waitingTime="25.00" waitingCount="1" stopTime="0.00" timeLoss="52.44" rerouteNo="0" devices="tripinfo_f_2.9" vType="DEFAULT_VEHTYPE" speedFactor="1.14" vaporized=""/>
    <tripinfo id="f_3.11" depart="3047.00" departLane="E14_0" departPos="5.10" departSpeed="0.00" departDelay="0.85" arrival="3138.00" arrivalLane="E20_0" arrivalPos="89.60" arrivalSpeed="14.39" duration="91.00" routeLength="783.25" waitingTime="10.00" waitingCount="2" stopTime="0.00" timeLoss="35.19" rerouteNo="0" devices="tripinfo_f_3.11" vType="DEFAULT_VEHTYPE" speedFactor="1.08" vaporized=""/>
    <tripinfo id="f_7.5" depart="3000.00" departLane="E23_0" departPos="5.10" departSpeed="0.00" departDelay="0.00" arrival="3162.00" arrivalLane="E20_0" arrivalPos="89.60" arrivalSpeed="12.86" duration="162.00" routeLength="780.85" waitingTime="71.00" waitingCount="3" stopTime="0.00" timeLoss="101.24" rerouteNo="0" devices="tripinfo_f_7.5" vType="DEFAULT_VEHTYPE" speedFactor="0.97" vaporized=""/>
    <tripinfo id="f_0.5" depart="3000.00" departLane="E12_0" departPos="5.10" departSpeed="0.00" departDelay="0.00" arrival="3173.00" arrivalLane="E15_0" arrivalPos="92.00" arrivalSpeed="13.68" duration="173.00" routeLength="774.40" waitingTime="83.00" waitingCount="4" stopTime="0.00" timeLoss="115.63" rerouteNo="0" devices="tripinfo_f_0.5" vType="DEFAULT_VEHTYPE" speedFactor="1.02" vaporized=""/>
    <tripinfo id="f_8.7" depart="3150.00" departLane="E17_0" departPos="5.10" departSpeed="0.00" departDelay="0.00" arrival="3242.00" arrivalLane="E9_0" arrivalPos="85.60" arrivalSpeed="13.76" duration="92.00" routeLength="771.49" waitingTime="18.00" waitingCount="1" stopTime="0.00" timeLoss="34.94" rerouteNo="0" devices="tripinfo_f_8.7" vType="DEFAULT_VEHTYPE" speedFactor="1.02" vaporized=""/>
    <tripinfo id="f_5.7" depart="3150.00" departLane="E19_0" departPos="5.10" departSpeed="0.00" departDelay="0.00" arrival="3312.00" arrivalLane="E14_0" arrivalPos="85.60" arrivalSpeed="14.92" duration="162.00" routeLength="756.75" waitingTime="73.00" waitingCount="3" stopTime="0.00" timeLoss="110.02" rerouteNo="0" devices="tripinfo_f_5.7" vType="DEFAULT_VEHTYPE" speedFactor="1.12" vaporized=""/>
    <tripinfo id="f_4.8" depart="3200.00" departLane="E1_0" departPos="5.10" departSpeed="0.00" departDelay="0.00" arrival="3312.00" arrivalLane="E0_0" arrivalPos="89.60" arrivalSpeed="12.96" duration="112.00" routeLength="765.32" waitingTime="25.00" waitingCount="3" stopTime="0.00" timeLoss="52.61" rerouteNo="0" devices="tripinfo_f_4.8" vType="DEFAULT_VEHTYPE" speedFactor="0.99" vaporized=""/>
    <tripinfo id="f_2.10" depart="3273.00" departLane="E13_0" departPos="5.10" departSpeed="0.00" departDelay="0.28" arrival="3406.00" arrivalLane="E15_0" arrivalPos="92.00" arrivalSpeed="12.72" duration="133.00" routeLength="773.89" waitingTime="39.00" waitingCount="3" stopTime="0.00" timeLoss="71.33" rerouteNo="0" devices="tripinfo_f_2.10" vType="DEFAULT_VEHTYPE" speedFactor="0.94" vaporized=""/>
    <tripinfo id="f_3.12" depart="3324.00" departLane="E14_0" departPos="5.10" departSpeed="0.00" departDelay="0.92" arrival="3454.00" arrivalLane="E20_0" arrivalPos="89.60" arrivalSpeed="11.52" duration="130.00" routeLength="783.25" waitingTime="35.00" waitingCount="2" stopTime="0.00" timeLoss="61.94" rerouteNo="0" devices="tripinfo_f_3.12" vType="DEFAULT_VEHTYPE" speedFactor="0.88" vaporized=""/>
</tripinfos>
