<?xml version="1.0" encoding="UTF-8"?>

<!-- generated on 2024-11-13 19:40:19 by Eclipse SUMO sumo Version 1.21.0
<sumoConfiguration xmlns:xsi="http://www.w3.org/2001/XMLSchema-instance" xsi:noNamespaceSchemaLocation="http://sumo.dlr.de/xsd/sumoConfiguration.xsd">

    <input>
        <net-file value="../sumo/test.net.xml"/>
        <route-files value="../sumo/test.rou.xml"/>
        <additional-files value="../sumo/test.add.xml"/>
    </input>

    <output>
        <tripinfo-output value="../sumo/tripinfo.xml"/>
    </output>

</sumoConfiguration>
-->

<tripinfos xmlns:xsi="http://www.w3.org/2001/XMLSchema-instance" xsi:noNamespaceSchemaLocation="http://sumo.dlr.de/xsd/tripinfo_file.xsd">
    <tripinfo id="f_11.0" depart="0.00" departLane="E13_0" departPos="5.10" departSpeed="0.00" departDelay="0.00" arrival="33.00" arrivalLane="E22_0" arrivalPos="92.00" arrivalSpeed="14.61" duration="33.00" routeLength="376.68" waitingTime="0.00" waitingCount="0" stopTime="0.00" timeLoss="7.55" rerouteNo="0" devices="tripinfo_f_11.0" vType="DEFAULT_VEHTYPE" speedFactor="1.08" vaporized=""/>
    <tripinfo id="f_15.0" depart="0.00" departLane="E15_0" departPos="5.10" departSpeed="0.00" departDelay="0.00" arrival="50.00" arrivalLane="E23_0" arrivalPos="83.20" arrivalSpeed="11.67" duration="50.00" routeLength="358.01" waitingTime="7.00" waitingCount="1" stopTime="0.00" timeLoss="19.27" rerouteNo="0" devices="tripinfo_f_15.0" vType="DEFAULT_VEHTYPE" speedFactor="0.89" vaporized=""/>
    <tripinfo id="f_9.0" depart="3.00" departLane="E15_0" departPos="5.10" departSpeed="0.00" departDelay="3.00" arrival="50.00" arrivalLane="E23_1" arrivalPos="83.20" arrivalSpeed="11.66" duration="47.00" routeLength="368.29" waitingTime="5.00" waitingCount="1" stopTime="0.00" timeLoss="14.88" rerouteNo="0" devices="tripinfo_f_9.0" vType="DEFAULT_VEHTYPE" speedFactor="0.88" vaporized=""/>
    <tripinfo id="f_11.1" depart="15.00" departLane="E13_0" departPos="5.10" departSpeed="0.00" departDelay="0.72" arrival="50.00" arrivalLane="E22_0" arrivalPos="92.00" arrivalSpeed="12.96" duration="35.00" routeLength="376.68" waitingTime="0.00" waitingCount="0" stopTime="0.00" timeLoss="7.04" rerouteNo="0" devices="tripinfo_f_11.1" vType="DEFAULT_VEHTYPE" speedFactor="1.02" vaporized=""/>
    <tripinfo id="f_9.1" depart="18.00" departLane="E15_0" departPos="5.10" departSpeed="0.00" departDelay="3.00" arrival="52.00" arrivalLane="E23_1" arrivalPos="83.20" arrivalSpeed="16.09" duration="34.00" routeLength="368.29" waitingTime="0.00" waitingCount="0" stopTime="0.00" timeLoss="9.00" rerouteNo="0" devices="tripinfo_f_9.1" vType="DEFAULT_VEHTYPE" speedFactor="1.17" vaporized=""/>
    <tripinfo id="f_15.1" depart="15.00" departLane="E15_0" departPos="5.10" departSpeed="0.00" departDelay="0.37" arrival="58.00" arrivalLane="E23_1" arrivalPos="83.20" arrivalSpeed="10.19" duration="43.00" routeLength="363.17" waitingTime="0.00" waitingCount="0" stopTime="0.00" timeLoss="9.00" rerouteNo="0" devices="tripinfo_f_15.1" vType="DEFAULT_VEHTYPE" speedFactor="0.83" vaporized=""/>
    <tripinfo id="f_15.2" depart="30.00" departLane="E15_0" departPos="5.10" departSpeed="0.00" departDelay="0.73" arrival="69.00" arrivalLane="E23_1" arrivalPos="83.20" arrivalSpeed="7.52" duration="39.00" routeLength="368.29" waitingTime="0.00" waitingCount="0" stopTime="0.00" timeLoss="13.26" rerouteNo="0" devices="tripinfo_f_15.2" vType="DEFAULT_VEHTYPE" speedFactor="1.09" vaporized=""/>
    <tripinfo id="f_9.2" depart="33.00" departLane="E15_0" departPos="5.10" departSpeed="0.00" departDelay="3.00" arrival="74.00" arrivalLane="E23_0" arrivalPos="83.20" arrivalSpeed="10.96" duration="41.00" routeLength="358.01" waitingTime="0.00" waitingCount="0" stopTime="0.00" timeLoss="8.92" rerouteNo="0" devices="tripinfo_f_9.2" vType="DEFAULT_VEHTYPE" speedFactor="0.85" vaporized=""/>
    <tripinfo id="f_16.0" depart="0.00" departLane="E1_0" departPos="5.10" departSpeed="0.00" departDelay="0.00" arrival="78.00" arrivalLane="E9_0" arrivalPos="79.20" arrivalSpeed="12.79" duration="78.00" routeLength="358.51" waitingTime="36.00" waitingCount="1" stopTime="0.00" timeLoss="48.48" rerouteNo="0" devices="tripinfo_f_16.0" vType="DEFAULT_VEHTYPE" speedFactor="0.94" vaporized=""/>
    <tripinfo id="f_14.0" depart="0.00" departLane="E12_0" departPos="5.10" departSpeed="0.00" departDelay="0.00" arrival="92.00" arrivalLane="E3_0" arrivalPos="83.20" arrivalSpeed="13.59" duration="92.00" routeLength="378.92" waitingTime="53.00" waitingCount="1" stopTime="0.00" timeLoss="64.11" rerouteNo="0" devices="tripinfo_f_14.0" vType="DEFAULT_VEHTYPE" speedFactor="1.05" vaporized=""/>
    <tripinfo id="f_15.3" depart="44.00" departLane="E15_0" departPos="5.10" departSpeed="0.00" departDelay="0.10" arrival="92.00" arrivalLane="E23_0" arrivalPos="83.20" arrivalSpeed="15.19" duration="48.00" routeLength="358.01" waitingTime="7.00" waitingCount="1" stopTime="0.00" timeLoss="23.63" rerouteNo="0" devices="tripinfo_f_15.3" vType="DEFAULT_VEHTYPE" speedFactor="1.12" vaporized=""/>
    <tripinfo id="f_9.3" depart="47.00" departLane="E15_0" departPos="5.10" departSpeed="0.00" departDelay="2.00" arrival="95.00" arrivalLane="E23_1" arrivalPos="83.20" arrivalSpeed="11.49" duration="48.00" routeLength="368.29" waitingTime="4.00" waitingCount="1" stopTime="0.00" timeLoss="16.86" rerouteNo="0" devices="tripinfo_f_9.3" vType="DEFAULT_VEHTYPE" speedFactor="0.91" vaporized=""/>
    <tripinfo id="f_12.0" depart="0.00" departLane="E2_0" departPos="5.10" departSpeed="0.00" departDelay="0.00" arrival="96.00" arrivalLane="E20_1" arrivalPos="80.00" arrivalSpeed="14.15" duration="96.00" routeLength="373.04" waitingTime="50.00" waitingCount="2" stopTime="0.00" timeLoss="68.48" rerouteNo="0" devices="tripinfo_f_12.0" vType="DEFAULT_VEHTYPE" speedFactor="1.03" vaporized=""/>
    <tripinfo id="f_14.1" depart="15.00" departLane="E12_0" departPos="5.10" departSpeed="0.00" departDelay="0.37" arrival="96.00" arrivalLane="E3_1" arrivalPos="83.20" arrivalSpeed="12.17" duration="81.00" routeLength="378.92" waitingTime="38.00" waitingCount="1" stopTime="0.00" timeLoss="48.28" rerouteNo="0" devices="tripinfo_f_14.1" vType="DEFAULT_VEHTYPE" speedFactor="0.89" vaporized=""/>
    <tripinfo id="f_15.4" depart="59.00" departLane="E15_0" departPos="5.10" departSpeed="0.00" departDelay="0.46" arrival="96.00" arrivalLane="E23_0" arrivalPos="83.20" arrivalSpeed="13.60" duration="37.00" routeLength="358.01" waitingTime="0.00" waitingCount="0" stopTime="0.00" timeLoss="10.14" rerouteNo="0" devices="tripinfo_f_15.4" vType="DEFAULT_VEHTYPE" speedFactor="1.01" vaporized=""/>
    <tripinfo id="f_9.4" depart="62.00" departLane="E15_0" departPos="5.10" departSpeed="0.00" departDelay="2.00" arrival="97.00" arrivalLane="E23_1" arrivalPos="83.20" arrivalSpeed="14.64" duration="35.00" routeLength="368.29" waitingTime="0.00" waitingCount="0" stopTime="0.00" timeLoss="9.97" rerouteNo="0" devices="tripinfo_f_9.4" vType="DEFAULT_VEHTYPE" speedFactor="1.15" vaporized=""/>
    <tripinfo id="f_11.3" depart="43.00" departLane="E13_0" departPos="5.10" departSpeed="0.00" departDelay="0.15" arrival="109.00" arrivalLane="E22_1" arrivalPos="92.00" arrivalSpeed="15.31" duration="66.00" routeLength="381.84" waitingTime="28.00" waitingCount="1" stopTime="0.00" timeLoss="41.31" rerouteNo="0" devices="tripinfo_f_11.3" vType="DEFAULT_VEHTYPE" speedFactor="1.17" vaporized=""/>
    <tripinfo id="f_11.2" depart="29.00" departLane="E13_0" departPos="5.10" departSpeed="0.00" departDelay="0.43" arrival="113.00" arrivalLane="E22_0" arrivalPos="92.00" arrivalSpeed="13.69" duration="84.00" routeLength="376.68" waitingTime="41.00" waitingCount="1" stopTime="0.00" timeLoss="56.07" rerouteNo="0" devices="tripinfo_f_11.2" vType="DEFAULT_VEHTYPE" speedFactor="0.99" vaporized=""/>
    <tripinfo id="f_11.4" depart="58.00" departLane="E13_0" departPos="5.10" departSpeed="0.00" departDelay="0.86" arrival="114.00" arrivalLane="E22_1" arrivalPos="92.00" arrivalSpeed="14.15" duration="56.00" routeLength="381.84" waitingTime="15.00" waitingCount="1" stopTime="0.00" timeLoss="28.64" rerouteNo="0" devices="tripinfo_f_11.4" vType="DEFAULT_VEHTYPE" speedFactor="1.04" vaporized=""/>
    <tripinfo id="f_11.5" depart="72.00" departLane="E13_0" departPos="5.10" departSpeed="0.00" departDelay="0.58" arrival="117.00" arrivalLane="E22_0" arrivalPos="92.00" arrivalSpeed="13.26" duration="45.00" routeLength="376.68" waitingTime="2.00" waitingCount="1" stopTime="0.00" timeLoss="16.65" rerouteNo="0" devices="tripinfo_f_11.5" vType="DEFAULT_VEHTYPE" speedFactor="0.98" vaporized=""/>
    <tripinfo id="f_9.5" depart="77.00" departLane="E15_0" departPos="5.10" departSpeed="0.00" departDelay="2.00" arrival="136.00" arrivalLane="E23_1" arrivalPos="83.20" arrivalSpeed="8.96" duration="59.00" routeLength="368.29" waitingTime="13.00" waitingCount="1" stopTime="0.00" timeLoss="29.81" rerouteNo="0" devices="tripinfo_f_9.5" vType="DEFAULT_VEHTYPE" speedFactor="0.96" vaporized=""/>
    <tripinfo id="f_9.6" depart="91.00" departLane="E15_0" departPos="5.10" departSpeed="0.00" departDelay="1.00" arrival="138.00" arrivalLane="E23_1" arrivalPos="83.20" arrivalSpeed="10.26" duration="47.00" routeLength="368.29" waitingTime="2.00" waitingCount="1" stopTime="0.00" timeLoss="18.72" rerouteNo="0" devices="tripinfo_f_9.6" vType="DEFAULT_VEHTYPE" speedFactor="0.99" vaporized=""/>
    <tripinfo id="f_15.5" depart="74.00" departLane="E15_0" departPos="5.10" departSpeed="0.00" departDelay="0.83" arrival="139.00" arrivalLane="E23_0" arrivalPos="83.20" arrivalSpeed="10.28" duration="65.00" routeLength="358.01" waitingTime="20.00" waitingCount="1" stopTime="0.00" timeLoss="39.35" rerouteNo="0" devices="tripinfo_f_15.5" vType="DEFAULT_VEHTYPE" speedFactor="1.06" vaporized=""/>
    <tripinfo id="f_11.6" depart="86.00" departLane="E13_0" departPos="5.10" departSpeed="0.00" departDelay="0.29" arrival="139.00" arrivalLane="E22_1" arrivalPos="92.00" arrivalSpeed="12.38" duration="53.00" routeLength="381.84" waitingTime="10.00" waitingCount="1" stopTime="0.00" timeLoss="23.60" rerouteNo="0" devices="tripinfo_f_11.6" vType="DEFAULT_VEHTYPE" speedFactor="0.97" vaporized=""/>
    <tripinfo id="f_10.0" depart="0.00" departLane="E10_0" departPos="5.10" departSpeed="0.00" departDelay="0.00" arrival="140.00" arrivalLane="E4_0" arrivalPos="79.20" arrivalSpeed="12.88" duration="140.00" routeLength="363.67" waitingTime="95.00" waitingCount="2" stopTime="0.00" timeLoss="112.70" rerouteNo="0" devices="tripinfo_f_10.0" vType="DEFAULT_VEHTYPE" speedFactor="1.01" vaporized=""/>
    <tripinfo id="f_15.6" depart="88.00" departLane="E15_0" departPos="5.10" departSpeed="0.00" departDelay="0.20" arrival="140.00" arrivalLane="E23_1" arrivalPos="83.20" arrivalSpeed="11.78" duration="52.00" routeLength="358.01" waitingTime="8.00" waitingCount="1" stopTime="0.00" timeLoss="27.31" rerouteNo="0" devices="tripinfo_f_15.6" vType="DEFAULT_VEHTYPE" speedFactor="1.10" vaporized=""/>
    <tripinfo id="f_11.7" depart="100.00" departLane="E13_0" departPos="5.10" departSpeed="0.00" departDelay="0.01" arrival="145.00" arrivalLane="E22_0" arrivalPos="92.00" arrivalSpeed="13.90" duration="45.00" routeLength="376.68" waitingTime="3.00" waitingCount="1" stopTime="0.00" timeLoss="19.19" rerouteNo="0" devices="tripinfo_f_11.7" vType="DEFAULT_VEHTYPE" speedFactor="1.07" vaporized=""/>
    <tripinfo id="f_16.1" depart="15.00" departLane="E1_0" departPos="5.10" departSpeed="0.00" departDelay="0.72" arrival="146.00" arrivalLane="E9_0" arrivalPos="79.20" arrivalSpeed="11.96" duration="131.00" routeLength="358.51" waitingTime="84.00" waitingCount="2" stopTime="0.00" timeLoss="99.73" rerouteNo="0" devices="tripinfo_f_16.1" vType="DEFAULT_VEHTYPE" speedFactor="0.87" vaporized=""/>
    <tripinfo id="f_15.7" depart="103.00" departLane="E15_0" departPos="5.10" departSpeed="0.00" departDelay="0.56" arrival="148.00" arrivalLane="E23_0" arrivalPos="83.20" arrivalSpeed="13.71" duration="45.00" routeLength="358.01" waitingTime="2.00" waitingCount="1" stopTime="0.00" timeLoss="18.60" rerouteNo="0" devices="tripinfo_f_15.7" vType="DEFAULT_VEHTYPE" speedFactor="1.01" vaporized=""/>
    <tripinfo id="f_9.7" depart="106.00" departLane="E15_0" departPos="5.10" departSpeed="0.00" departDelay="1.00" arrival="149.00" arrivalLane="E23_1" arrivalPos="83.20" arrivalSpeed="14.03" duration="43.00" routeLength="368.29" waitingTime="1.00" waitingCount="1" stopTime="0.00" timeLoss="14.19" rerouteNo="0" devices="tripinfo_f_9.7" vType="DEFAULT_VEHTYPE" speedFactor="1.01" vaporized=""/>
    <tripinfo id="f_3.0" depart="3.00" departLane="E10_0" departPos="5.10" departSpeed="0.00" departDelay="3.00" arrival="156.00" arrivalLane="E4_1" arrivalPos="79.20" arrivalSpeed="14.42" duration="153.00" routeLength="368.83" waitingTime="109.00" waitingCount="2" stopTime="0.00" timeLoss="127.57" rerouteNo="0" devices="tripinfo_f_3.0" vType="DEFAULT_VEHTYPE" speedFactor="1.09" vaporized=""/>
    <tripinfo id="f_15.8" depart="118.00" departLane="E15_0" departPos="5.10" departSpeed="0.00" departDelay="0.93" arrival="156.00" arrivalLane="E23_1" arrivalPos="83.20" arrivalSpeed="12.18" duration="38.00" routeLength="368.29" waitingTime="0.00" waitingCount="0" stopTime="0.00" timeLoss="6.66" rerouteNo="0" devices="tripinfo_f_15.8" vType="DEFAULT_VEHTYPE" speedFactor="0.89" vaporized=""/>
    <tripinfo id="f_9.8" depart="120.00" departLane="E15_0" departPos="5.10" departSpeed="0.00" departDelay="0.00" arrival="159.00" arrivalLane="E23_0" arrivalPos="83.20" arrivalSpeed="13.84" duration="39.00" routeLength="363.13" waitingTime="0.00" waitingCount="0" stopTime="0.00" timeLoss="13.16" rerouteNo="0" devices="tripinfo_f_9.8" vType="DEFAULT_VEHTYPE" speedFactor="1.07" vaporized=""/>
    <tripinfo id="f_14.3" depart="44.00" departLane="E12_0" departPos="5.10" departSpeed="0.00" departDelay="0.10" arrival="161.00" arrivalLane="E3_1" arrivalPos="83.20" arrivalSpeed="13.93" duration="117.00" routeLength="378.92" waitingTime="76.00" waitingCount="2" stopTime="0.00" timeLoss="90.35" rerouteNo="0" devices="tripinfo_f_14.3" vType="DEFAULT_VEHTYPE" speedFactor="1.08" vaporized=""/>
    <tripinfo id="f_14.2" depart="30.00" departLane="E12_0" departPos="5.10" departSpeed="0.00" departDelay="0.73" arrival="162.00" arrivalLane="E3_0" arrivalPos="83.20" arrivalSpeed="13.43" duration="132.00" routeLength="378.92" waitingTime="90.00" waitingCount="2" stopTime="0.00" timeLoss="104.62" rerouteNo="0" devices="tripinfo_f_14.2" vType="DEFAULT_VEHTYPE" speedFactor="1.04" vaporized=""/>
    <tripinfo id="f_15.9" depart="132.00" departLane="E15_0" departPos="5.10" departSpeed="0.00" departDelay="0.29" arrival="165.00" arrivalLane="E23_1" arrivalPos="83.20" arrivalSpeed="15.06" duration="33.00" routeLength="368.29" waitingTime="0.00" waitingCount="0" stopTime="0.00" timeLoss="7.71" rerouteNo="0" devices="tripinfo_f_15.9" vType="DEFAULT_VEHTYPE" speedFactor="1.13" vaporized=""/>
    <tripinfo id="f_8.0" depart="3.00" departLane="E1_0" departPos="5.10" departSpeed="0.00" departDelay="3.00" arrival="171.00" arrivalLane="E13_1" arrivalPos="92.00" arrivalSpeed="6.68" duration="168.00" routeLength="381.84" waitingTime="117.00" waitingCount="3" stopTime="0.00" timeLoss="136.98" rerouteNo="0" devices="tripinfo_f_8.0" vType="DEFAULT_VEHTYPE" speedFactor="0.93" vaporized=""/>
    <tripinfo id="f_13.0" depart="0.00" departLane="E20_0" departPos="5.10" departSpeed="0.00" departDelay="0.00" arrival="210.00" arrivalLane="E12_0" arrivalPos="92.00" arrivalSpeed="5.25" duration="210.00" routeLength="355.31" waitingTime="153.00" waitingCount="3" stopTime="0.00" timeLoss="177.95" rerouteNo="0" devices="tripinfo_f_13.0" vType="DEFAULT_VEHTYPE" speedFactor="0.83" vaporized=""/>
    <tripinfo id="f_13.1" depart="15.00" departLane="E20_0" departPos="5.10" departSpeed="0.00" departDelay="0.37" arrival="212.00" arrivalLane="E12_0" arrivalPos="92.00" arrivalSpeed="7.63" duration="197.00" routeLength="355.31" waitingTime="138.00" waitingCount="3" stopTime="0.00" timeLoss="169.58" rerouteNo="0" devices="tripinfo_f_13.1" vType="DEFAULT_VEHTYPE" speedFactor="0.97" vaporized=""/>
    <tripinfo id="f_16.2" depart="29.00" departLane="E1_0" departPos="5.10" departSpeed="0.00" departDelay="0.43" arrival="213.00" arrivalLane="E9_0" arrivalPos="79.20" arrivalSpeed="12.95" duration="184.00" routeLength="358.51" waitingTime="135.00" waitingCount="3" stopTime="0.00" timeLoss="157.33" rerouteNo="0" devices="tripinfo_f_16.2" vType="DEFAULT_VEHTYPE" speedFactor="1.02" vaporized=""/>
    <tripinfo id="f_7.0" depart="3.00" departLane="E23_0" departPos="5.10" departSpeed="0.00" departDelay="3.00" arrival="216.00" arrivalLane="E8_1" arrivalPos="92.00" arrivalSpeed="12.94" duration="213.00" routeLength="378.93" waitingTime="158.00" waitingCount="3" stopTime="0.00" timeLoss="183.93" rerouteNo="0" devices="tripinfo_f_7.0" vType="DEFAULT_VEHTYPE" speedFactor="0.99" vaporized=""/>
    <tripinfo id="f_9.9" depart="135.00" departLane="E15_0" departPos="5.10" departSpeed="0.00" departDelay="0.00" arrival="234.00" arrivalLane="E23_1" arrivalPos="83.20" arrivalSpeed="5.22" duration="99.00" routeLength="368.29" waitingTime="56.00" waitingCount="1" stopTime="0.00" timeLoss="69.19" rerouteNo="0" devices="tripinfo_f_9.9" vType="DEFAULT_VEHTYPE" speedFactor="0.94" vaporized=""/>
    <tripinfo id="f_11.9" depart="129.00" departLane="E13_0" departPos="5.10" departSpeed="0.00" departDelay="0.44" arrival="246.00" arrivalLane="E22_1" arrivalPos="92.00" arrivalSpeed="11.92" duration="117.00" routeLength="381.84" waitingTime="67.00" waitingCount="2" stopTime="0.00" timeLoss="86.03" rerouteNo="0" devices="tripinfo_f_11.9" vType="DEFAULT_VEHTYPE" speedFactor="0.93" vaporized=""/>
    <tripinfo id="f_11.10" depart="143.00" departLane="E13_0" departPos="5.10" departSpeed="0.00" departDelay="0.15" arrival="247.00" arrivalLane="E22_1" arrivalPos="92.00" arrivalSpeed="14.91" duration="104.00" routeLength="381.84" waitingTime="56.00" waitingCount="2" stopTime="0.00" timeLoss="78.16" rerouteNo="0" devices="tripinfo_f_11.10" vType="DEFAULT_VEHTYPE" speedFactor="1.09" vaporized=""/>
    <tripinfo id="f_12.1" depart="17.00" departLane="E2_0" departPos="5.10" departSpeed="0.00" departDelay="2.00" arrival="264.00" arrivalLane="E20_1" arrivalPos="80.00" arrivalSpeed="10.86" duration="247.00" routeLength="373.04" waitingTime="191.00" waitingCount="4" stopTime="0.00" timeLoss="219.72" rerouteNo="0" devices="tripinfo_f_12.1" vType="DEFAULT_VEHTYPE" speedFactor="1.01" vaporized=""/>
    <tripinfo id="f_5.0" depart="5.00" departLane="E10_0" departPos="5.10" departSpeed="0.00" departDelay="5.00" arrival="271.00" arrivalLane="E4_0" arrivalPos="79.20" arrivalSpeed="13.51" duration="266.00" routeLength="363.67" waitingTime="215.00" waitingCount="4" stopTime="0.00" timeLoss="239.62" rerouteNo="0" devices="tripinfo_f_5.0" vType="DEFAULT_VEHTYPE" speedFactor="1.05" vaporized=""/>
    <tripinfo id="f_16.3" depart="43.00" departLane="E1_0" departPos="5.10" departSpeed="0.00" departDelay="0.15" arrival="281.00" arrivalLane="E9_0" arrivalPos="79.20" arrivalSpeed="13.61" duration="238.00" routeLength="358.51" waitingTime="184.00" waitingCount="3" stopTime="0.00" timeLoss="211.05" rerouteNo="0" devices="tripinfo_f_16.3" vType="DEFAULT_VEHTYPE" speedFactor="1.02" vaporized=""/>
    <tripinfo id="f_1.0" depart="0.00" departLane="E4_0" departPos="5.10" departSpeed="0.00" departDelay="0.00" arrival="282.00" arrivalLane="E12_0" arrivalPos="92.00" arrivalSpeed="5.02" duration="282.00" routeLength="392.88" waitingTime="215.00" waitingCount="4" stopTime="0.00" timeLoss="250.01" rerouteNo="0" devices="tripinfo_f_1.0" vType="DEFAULT_VEHTYPE" speedFactor="0.94" vaporized=""/>
    <tripinfo id="f_8.1" depart="18.00" departLane="E1_0" departPos="5.10" departSpeed="0.00" departDelay="3.72" arrival="283.00" arrivalLane="E13_1" arrivalPos="92.00" arrivalSpeed="13.73" duration="265.00" routeLength="381.84" waitingTime="211.00" waitingCount="4" stopTime="0.00" timeLoss="236.33" rerouteNo="0" devices="tripinfo_f_8.1" vType="DEFAULT_VEHTYPE" speedFactor="1.01" vaporized=""/>
    <tripinfo id="f_14.4" depart="64.00" departLane="E12_0" departPos="5.10" departSpeed="0.00" departDelay="5.46" arrival="306.00" arrivalLane="E3_0" arrivalPos="83.20" arrivalSpeed="13.50" duration="242.00" routeLength="378.92" waitingTime="185.00" waitingCount="3" stopTime="0.00" timeLoss="213.08" rerouteNo="0" devices="tripinfo_f_14.4" vType="DEFAULT_VEHTYPE" speedFactor="0.98" vaporized=""/>
    <tripinfo id="f_10.1" depart="15.00" departLane="E10_0" departPos="5.10" departSpeed="0.00" departDelay="0.37" arrival="319.00" arrivalLane="E4_1" arrivalPos="79.20" arrivalSpeed="5.58" duration="304.00" routeLength="368.83" waitingTime="249.00" waitingCount="5" stopTime="0.00" timeLoss="279.44" rerouteNo="0" devices="tripinfo_f_10.1" vType="DEFAULT_VEHTYPE" speedFactor="1.16" vaporized=""/>
    <tripinfo id="f_6.1" depart="15.00" departLane="E9_0" departPos="5.10" departSpeed="0.00" departDelay="0.37" arrival="343.00" arrivalLane="E6_0" arrivalPos="83.20" arrivalSpeed="6.01" duration="328.00" routeLength="340.34" waitingTime="271.00" waitingCount="5" stopTime="0.00" timeLoss="306.11" rerouteNo="0" devices="tripinfo_f_6.1" vType="DEFAULT_VEHTYPE" speedFactor="1.18" vaporized=""/>
    <tripinfo id="f_6.0" depart="0.00" departLane="E9_0" departPos="5.10" departSpeed="0.00" departDelay="0.00" arrival="345.00" arrivalLane="E6_0" arrivalPos="83.20" arrivalSpeed="7.69" duration="345.00" routeLength="350.66" waitingTime="280.00" waitingCount="5" stopTime="0.00" timeLoss="321.05" rerouteNo="0" devices="tripinfo_f_6.0" vType="DEFAULT_VEHTYPE" speedFactor="1.12" vaporized=""/>
    <tripinfo id="f_16.4" depart="58.00" departLane="E1_0" departPos="5.10" departSpeed="0.00" departDelay="0.86" arrival="349.00" arrivalLane="E9_0" arrivalPos="79.20" arrivalSpeed="13.53" duration="291.00" routeLength="358.51" waitingTime="239.00" waitingCount="4" stopTime="0.00" timeLoss="264.86" rerouteNo="0" devices="tripinfo_f_16.4" vType="DEFAULT_VEHTYPE" speedFactor="1.02" vaporized=""/>
    <tripinfo id="f_7.1" depart="28.00" departLane="E23_0" departPos="5.10" departSpeed="0.00" departDelay="13.00" arrival="355.00" arrivalLane="E8_1" arrivalPos="92.00" arrivalSpeed="15.81" duration="327.00" routeLength="378.93" waitingTime="268.00" waitingCount="5" stopTime="0.00" timeLoss="301.93" rerouteNo="0" devices="tripinfo_f_7.1" vType="DEFAULT_VEHTYPE" speedFactor="1.15" vaporized=""/>
    <tripinfo id="f_14.6" depart="91.00" departLane="E12_0" departPos="5.10" departSpeed="0.00" departDelay="3.20" arrival="376.00" arrivalLane="E3_0" arrivalPos="83.20" arrivalSpeed="11.79" duration="285.00" routeLength="378.92" waitingTime="221.00" waitingCount="4" stopTime="0.00" timeLoss="251.47" rerouteNo="0" devices="tripinfo_f_14.6" vType="DEFAULT_VEHTYPE" speedFactor="0.87" vaporized=""/>
    <tripinfo id="f_3.4" depart="58.00" departLane="E10_0" departPos="5.10" departSpeed="0.00" departDelay="0.86" arrival="406.00" arrivalLane="E4_1" arrivalPos="79.20" arrivalSpeed="6.25" duration="348.00" routeLength="363.67" waitingTime="291.00" waitingCount="6" stopTime="0.00" timeLoss="319.86" rerouteNo="0" devices="tripinfo_f_3.4" vType="DEFAULT_VEHTYPE" speedFactor="0.97" vaporized=""/>
    <tripinfo id="f_1.1" depart="15.00" departLane="E4_0" departPos="5.10" departSpeed="0.00" departDelay="0.37" arrival="419.00" arrivalLane="E12_1" arrivalPos="92.00" arrivalSpeed="5.92" duration="404.00" routeLength="382.56" waitingTime="331.00" waitingCount="6" stopTime="0.00" timeLoss="373.46" rerouteNo="0" devices="tripinfo_f_1.1" vType="DEFAULT_VEHTYPE" speedFactor="0.94" vaporized=""/>
    <tripinfo id="f_1.3" depart="44.00" departLane="E4_0" departPos="5.10" departSpeed="0.00" departDelay="0.10" arrival="422.00" arrivalLane="E12_1" arrivalPos="92.00" arrivalSpeed="8.74" duration="378.00" routeLength="382.56" waitingTime="301.00" waitingCount="6" stopTime="0.00" timeLoss="352.18" rerouteNo="0" devices="tripinfo_f_1.3" vType="DEFAULT_VEHTYPE" speedFactor="1.14" vaporized=""/>
    <tripinfo id="f_1.2" depart="30.00" departLane="E4_0" departPos="5.10" departSpeed="0.00" departDelay="0.73" arrival="424.00" arrivalLane="E12_1" arrivalPos="92.00" arrivalSpeed="10.57" duration="394.00" routeLength="387.72" waitingTime="311.00" waitingCount="6" stopTime="0.00" timeLoss="365.24" rerouteNo="0" devices="tripinfo_f_1.2" vType="DEFAULT_VEHTYPE" speedFactor="1.03" vaporized=""/>
    <tripinfo id="f_14.5" depart="74.00" departLane="E12_0" departPos="5.10" departSpeed="0.00" departDelay="0.83" arrival="441.00" arrivalLane="E3_1" arrivalPos="83.20" arrivalSpeed="14.87" duration="367.00" routeLength="378.92" waitingTime="309.00" waitingCount="5" stopTime="0.00" timeLoss="340.46" rerouteNo="0" devices="tripinfo_f_14.5" vType="DEFAULT_VEHTYPE" speedFactor="1.09" vaporized=""/>
    <tripinfo id="f_14.7" depart="103.00" departLane="E12_0" departPos="5.10" departSpeed="0.00" departDelay="0.56" arrival="441.00" arrivalLane="E3_0" arrivalPos="83.20" arrivalSpeed="15.35" duration="338.00" routeLength="378.92" waitingTime="273.00" waitingCount="5" stopTime="0.00" timeLoss="311.78" rerouteNo="0" devices="tripinfo_f_14.7" vType="DEFAULT_VEHTYPE" speedFactor="1.12" vaporized=""/>
    <tripinfo id="f_3.1" depart="16.00" departLane="E10_0" departPos="5.10" departSpeed="0.00" departDelay="1.72" arrival="444.00" arrivalLane="E4_1" arrivalPos="79.20" arrivalSpeed="5.36" duration="428.00" routeLength="368.83" waitingTime="357.00" waitingCount="7" stopTime="0.00" timeLoss="398.70" rerouteNo="0" devices="tripinfo_f_3.1" vType="DEFAULT_VEHTYPE" speedFactor="0.95" vaporized=""/>
    <tripinfo id="f_10.4" depart="61.00" departLane="E10_0" departPos="5.10" departSpeed="0.00" departDelay="2.46" arrival="537.00" arrivalLane="E4_1" arrivalPos="79.20" arrivalSpeed="6.94" duration="476.00" routeLength="363.67" waitingTime="410.00" waitingCount="12" stopTime="0.00" timeLoss="448.02" rerouteNo="0" devices="tripinfo_f_10.4" vType="DEFAULT_VEHTYPE" speedFactor="0.98" vaporized=""/>
    <tripinfo id="f_11.8" depart="115.00" departLane="E13_0" departPos="5.10" departSpeed="0.00" departDelay="0.72" arrival="551.00" arrivalLane="E22_0" arrivalPos="92.00" arrivalSpeed="14.45" duration="436.00" routeLength="376.68" waitingTime="382.00" waitingCount="3" stopTime="0.00" timeLoss="411.61" rerouteNo="0" devices="tripinfo_f_11.8" vType="DEFAULT_VEHTYPE" speedFactor="1.12" vaporized=""/>
    <tripinfo id="f_11.11" depart="158.00" departLane="E13_0" departPos="5.10" departSpeed="0.00" departDelay="0.87" arrival="554.00" arrivalLane="E22_0" arrivalPos="92.00" arrivalSpeed="11.83" duration="396.00" routeLength="376.68" waitingTime="339.00" waitingCount="2" stopTime="0.00" timeLoss="364.94" rerouteNo="0" devices="tripinfo_f_11.11" vType="DEFAULT_VEHTYPE" speedFactor="0.89" vaporized=""/>
    <tripinfo id="f_11.12" depart="172.00" departLane="E13_0" departPos="5.10" departSpeed="0.00" departDelay="0.58" arrival="556.00" arrivalLane="E22_0" arrivalPos="92.00" arrivalSpeed="14.74" duration="384.00" routeLength="376.68" waitingTime="333.00" waitingCount="2" stopTime="0.00" timeLoss="357.59" rerouteNo="0" devices="tripinfo_f_11.12" vType="DEFAULT_VEHTYPE" speedFactor="1.07" vaporized=""/>
    <tripinfo id="f_5.4" depart="64.00" departLane="E10_0" departPos="5.10" departSpeed="0.00" departDelay="5.46" arrival="570.00" arrivalLane="E4_1" arrivalPos="79.20" arrivalSpeed="6.11" duration="506.00" routeLength="368.83" waitingTime="441.00" waitingCount="10" stopTime="0.00" timeLoss="478.78" rerouteNo="0" devices="tripinfo_f_5.4" vType="DEFAULT_VEHTYPE" speedFactor="1.03" vaporized=""/>
    <tripinfo id="f_6.5" depart="74.00" departLane="E9_0" departPos="5.10" departSpeed="0.00" departDelay="0.83" arrival="614.00" arrivalLane="E6_0" arrivalPos="83.20" arrivalSpeed="0.00" duration="540.00" routeLength="328.73" waitingTime="350.00" waitingCount="2" stopTime="0.00" timeLoss="361.12" rerouteNo="0" devices="tripinfo_f_6.5" vType="DEFAULT_VEHTYPE" speedFactor="1.12" vaporized="teleport"/>
    <tripinfo id="f_13.5" depart="81.00" departLane="E20_0" departPos="5.10" departSpeed="0.00" departDelay="7.83" arrival="621.00" arrivalLane="E12_0" arrivalPos="92.00" arrivalSpeed="0.00" duration="540.00" routeLength="337.71" waitingTime="404.00" waitingCount="3" stopTime="0.00" timeLoss="426.89" rerouteNo="0" devices="tripinfo_f_13.5" vType="DEFAULT_VEHTYPE" speedFactor="0.92" vaporized="teleport"/>
    <tripinfo id="f_3.5" depart="72.00" departLane="E10_0" departPos="5.10" departSpeed="0.00" departDelay="0.58" arrival="665.00" arrivalLane="E4_0" arrivalPos="79.20" arrivalSpeed="13.88" duration="593.00" routeLength="363.67" waitingTime="520.00" waitingCount="14" stopTime="0.00" timeLoss="564.37" rerouteNo="0" devices="tripinfo_f_3.5" vType="DEFAULT_VEHTYPE" speedFactor="1.01" vaporized=""/>
    <tripinfo id="f_6.2" depart="30.00" departLane="E9_0" departPos="5.10" departSpeed="0.00" departDelay="0.73" arrival="683.00" arrivalLane="E6_0" arrivalPos="83.20" arrivalSpeed="6.30" duration="653.00" routeLength="340.34" waitingTime="556.00" waitingCount="11" stopTime="0.00" timeLoss="623.06" rerouteNo="0" devices="tripinfo_f_6.2" vType="DEFAULT_VEHTYPE" speedFactor="0.88" vaporized=""/>
    <tripinfo id="f_6.3" depart="44.00" departLane="E9_0" departPos="5.10" departSpeed="0.00" departDelay="0.10" arrival="685.00" arrivalLane="E6_0" arrivalPos="83.20" arrivalSpeed="7.99" duration="641.00" routeLength="345.50" waitingTime="538.00" waitingCount="10" stopTime="0.00" timeLoss="612.41" rerouteNo="0" devices="tripinfo_f_6.3" vType="DEFAULT_VEHTYPE" speedFactor="0.94" vaporized=""/>