<?xml version="1.0" encoding="UTF-8"?>

<!-- generated on 2024-11-10 22:35:52 by Eclipse SUMO sumo Version 1.21.0
<sumoConfiguration xmlns:xsi="http://www.w3.org/2001/XMLSchema-instance" xsi:noNamespaceSchemaLocation="http://sumo.dlr.de/xsd/sumoConfiguration.xsd">

    <input>
        <net-file value="../sumo/test.net.xml"/>
        <route-files value="../sumo/test.rou.xml"/>
        <additional-files value="../sumo/test.add.xml"/>
    </input>

    <output>
        <tripinfo-output value="../sumo/tripinfo.xml"/>
    </output>

</sumoConfiguration>
-->

<tripinfos xmlns:xsi="http://www.w3.org/2001/XMLSchema-instance" xsi:noNamespaceSchemaLocation="http://sumo.dlr.de/xsd/tripinfo_file.xsd">
    <tripinfo id="f_7.0" depart="0.00" departLane="E13_0" departPos="5.10" departSpeed="0.00" departDelay="0.00" arrival="85.00" arrivalLane="E14_0" arrivalPos="85.60" arrivalSpeed="9.04" duration="85.00" routeLength="670.69" waitingTime="8.00" waitingCount="1" stopTime="0.00" timeLoss="28.26" rerouteNo="0" devices="tripinfo_f_7.0" vType="DEFAULT_VEHTYPE" speedFactor="0.89" vaporized=""/>
    <tripinfo id="f_7.1" depart="7.00" departLane="E13_0" departPos="5.10" departSpeed="0.00" departDelay="0.69" arrival="87.00" arrivalLane="E14_0" arrivalPos="85.60" arrivalSpeed="9.85" duration="80.00" routeLength="670.69" waitingTime="7.00" waitingCount="1" stopTime="0.00" timeLoss="34.26" rerouteNo="0" devices="tripinfo_f_7.1" vType="DEFAULT_VEHTYPE" speedFactor="1.09" vaporized=""/>
    <tripinfo id="f_7.2" depart="13.00" departLane="E13_0" departPos="5.10" departSpeed="0.00" departDelay="0.37" arrival="89.00" arrivalLane="E14_0" arrivalPos="85.60" arrivalSpeed="12.50" duration="76.00" routeLength="670.69" waitingTime="1.00" waitingCount="1" stopTime="0.00" timeLoss="22.90" rerouteNo="0" devices="tripinfo_f_7.2" vType="DEFAULT_VEHTYPE" speedFactor="0.94" vaporized=""/>
    <tripinfo id="f_4.0" depart="0.00" departLane="E21_0" departPos="5.10" departSpeed="0.00" departDelay="0.00" arrival="102.00" arrivalLane="E23_0" arrivalPos="89.60" arrivalSpeed="13.80" duration="102.00" routeLength="662.12" waitingTime="20.00" waitingCount="2" stopTime="0.00" timeLoss="53.58" rerouteNo="0" devices="tripinfo_f_4.0" vType="DEFAULT_VEHTYPE" speedFactor="1.03" vaporized=""/>
    <tripinfo id="f_4.1" depart="11.00" departLane="E21_0" departPos="5.10" departSpeed="0.00" departDelay="0.09" arrival="106.00" arrivalLane="E23_0" arrivalPos="89.60" arrivalSpeed="14.73" duration="95.00" routeLength="662.12" waitingTime="13.00" waitingCount="2" stopTime="0.00" timeLoss="50.42" rerouteNo="0" devices="tripinfo_f_4.1" vType="DEFAULT_VEHTYPE" speedFactor="1.12" vaporized=""/>
    <tripinfo id="f_9.0" depart="0.00" departLane="E15_0" departPos="5.10" departSpeed="0.00" departDelay="0.00" arrival="118.00" arrivalLane="E5_0" arrivalPos="85.60" arrivalSpeed="10.80" duration="118.00" routeLength="669.14" waitingTime="29.00" waitingCount="4" stopTime="0.00" timeLoss="58.78" rerouteNo="0" devices="tripinfo_f_9.0" vType="DEFAULT_VEHTYPE" speedFactor="0.86" vaporized=""/>
    <tripinfo id="f_9.1" depart="11.00" departLane="E15_0" departPos="5.10" departSpeed="0.00" departDelay="0.66" arrival="119.00" arrivalLane="E5_0" arrivalPos="85.60" arrivalSpeed="11.90" duration="108.00" routeLength="669.14" waitingTime="24.00" waitingCount="3" stopTime="0.00" timeLoss="54.48" rerouteNo="0" devices="tripinfo_f_9.1" vType="DEFAULT_VEHTYPE" speedFactor="0.93" vaporized=""/>
    <tripinfo id="f_9.2" depart="21.00" departLane="E15_0" departPos="5.10" departSpeed="0.00" departDelay="0.31" arrival="122.00" arrivalLane="E5_0" arrivalPos="85.60" arrivalSpeed="11.26" duration="101.00" routeLength="669.14" waitingTime="9.00" waitingCount="2" stopTime="0.00" timeLoss="40.10" rerouteNo="0" devices="tripinfo_f_9.2" vType="DEFAULT_VEHTYPE" speedFactor="0.83" vaporized=""/>
    <tripinfo id="f_9.3" depart="32.00" departLane="E15_0" departPos="5.10" departSpeed="0.00" departDelay="0.97" arrival="124.00" arrivalLane="E5_0" arrivalPos="85.60" arrivalSpeed="12.76" duration="92.00" routeLength="669.14" waitingTime="8.00" waitingCount="1" stopTime="0.00" timeLoss="42.19" rerouteNo="0" devices="tripinfo_f_9.3" vType="DEFAULT_VEHTYPE" speedFactor="0.99" vaporized=""/>
    <tripinfo id="f_5.0" depart="0.00" departLane="E6_0" departPos="5.10" departSpeed="0.00" departDelay="0.00" arrival="134.00" arrivalLane="E8_0" arrivalPos="92.00" arrivalSpeed="11.20" duration="134.00" routeLength="662.40" waitingTime="52.00" waitingCount="1" stopTime="0.00" timeLoss="73.16" rerouteNo="0" devices="tripinfo_f_5.0" vType="DEFAULT_VEHTYPE" speedFactor="0.83" vaporized=""/>
    <tripinfo id="f_5.1" depart="11.00" departLane="E6_0" departPos="5.10" departSpeed="0.00" departDelay="0.83" arrival="136.00" arrivalLane="E8_0" arrivalPos="92.00" arrivalSpeed="13.43" duration="125.00" routeLength="662.40" waitingTime="49.00" waitingCount="1" stopTime="0.00" timeLoss="73.21" rerouteNo="0" devices="tripinfo_f_5.1" vType="DEFAULT_VEHTYPE" speedFactor="0.99" vaporized=""/>
    <tripinfo id="f_1.0" depart="0.00" departLane="E17_0" departPos="5.10" departSpeed="0.00" departDelay="0.00" arrival="141.00" arrivalLane="E15_0" arrivalPos="92.00" arrivalSpeed="12.23" duration="141.00" routeLength="679.54" waitingTime="59.00" waitingCount="2" stopTime="0.00" timeLoss="86.72" rerouteNo="0" devices="tripinfo_f_1.0" vType="DEFAULT_VEHTYPE" speedFactor="0.94" vaporized=""/>
    <tripinfo id="f_7.3" depart="21.00" departLane="E13_0" departPos="5.10" departSpeed="0.00" departDelay="2.06" arrival="155.00" arrivalLane="E14_0" arrivalPos="85.60" arrivalSpeed="13.19" duration="134.00" routeLength="670.69" waitingTime="57.00" waitingCount="2" stopTime="0.00" timeLoss="84.27" rerouteNo="0" devices="tripinfo_f_7.3" vType="DEFAULT_VEHTYPE" speedFactor="1.01" vaporized=""/>
    <tripinfo id="f_7.4" depart="26.00" departLane="E13_0" departPos="5.10" departSpeed="0.00" departDelay="0.74" arrival="158.00" arrivalLane="E14_0" arrivalPos="85.60" arrivalSpeed="15.05" duration="132.00" routeLength="670.69" waitingTime="53.00" waitingCount="2" stopTime="0.00" timeLoss="89.85" rerouteNo="0" devices="tripinfo_f_7.4" vType="DEFAULT_VEHTYPE" speedFactor="1.18" vaporized=""/>
    <tripinfo id="f_2.0" depart="0.00" departLane="E1_0" departPos="5.10" departSpeed="0.00" departDelay="0.00" arrival="161.00" arrivalLane="E19_0" arrivalPos="85.60" arrivalSpeed="13.82" duration="161.00" routeLength="670.69" waitingTime="82.00" waitingCount="3" stopTime="0.00" timeLoss="112.07" rerouteNo="0" devices="tripinfo_f_2.0" vType="DEFAULT_VEHTYPE" speedFactor="1.01" vaporized=""/>
    <tripinfo id="f_8.0" depart="0.00" departLane="E14_0" departPos="5.10" departSpeed="0.00" departDelay="0.00" arrival="163.00" arrivalLane="E0_0" arrivalPos="89.60" arrivalSpeed="6.15" duration="163.00" routeLength="673.37" waitingTime="42.00" waitingCount="3" stopTime="0.00" timeLoss="108.19" rerouteNo="0" devices="tripinfo_f_8.0" vType="DEFAULT_VEHTYPE" speedFactor="0.94" vaporized=""/>
    <tripinfo id="f_3.0" depart="3.00" departLane="E1_0" departPos="5.10" departSpeed="0.00" departDelay="3.00" arrival="164.00" arrivalLane="E22_0" arrivalPos="92.00" arrivalSpeed="14.42" duration="161.00" routeLength="679.26" waitingTime="78.00" waitingCount="3" stopTime="0.00" timeLoss="114.37" rerouteNo="0" devices="tripinfo_f_3.0" vType="DEFAULT_VEHTYPE" speedFactor="1.08" vaporized=""/>
    <tripinfo id="f_8.1" depart="10.00" departLane="E14_0" departPos="5.10" departSpeed="0.00" departDelay="1.89" arrival="166.00" arrivalLane="E0_0" arrivalPos="89.60" arrivalSpeed="8.37" duration="156.00" routeLength="673.37" waitingTime="34.00" waitingCount="3" stopTime="0.00" timeLoss="106.81" rerouteNo="0" devices="tripinfo_f_8.1" vType="DEFAULT_VEHTYPE" speedFactor="1.05" vaporized=""/>
    <tripinfo id="f_8.2" depart="17.00" departLane="E14_0" departPos="5.10" departSpeed="0.00" departDelay="0.78" arrival="168.00" arrivalLane="E0_0" arrivalPos="89.60" arrivalSpeed="10.75" duration="151.00" routeLength="673.37" waitingTime="25.00" waitingCount="3" stopTime="0.00" timeLoss="99.72" rerouteNo="0" devices="tripinfo_f_8.2" vType="DEFAULT_VEHTYPE" speedFactor="1.02" vaporized=""/>
    <tripinfo id="f_0.0" depart="0.00" departLane="E9_0" departPos="5.10" departSpeed="0.00" departDelay="0.00" arrival="169.00" arrivalLane="E7_0" arrivalPos="85.60" arrivalSpeed="13.66" duration="169.00" routeLength="660.57" waitingTime="67.00" waitingCount="2" stopTime="0.00" timeLoss="121.85" rerouteNo="0" devices="tripinfo_f_0.0" vType="DEFAULT_VEHTYPE" speedFactor="1.06" vaporized=""/>
    <tripinfo id="f_2.1" depart="13.00" departLane="E1_0" departPos="5.10" departSpeed="0.00" departDelay="0.24" arrival="169.00" arrivalLane="E19_0" arrivalPos="85.60" arrivalSpeed="11.12" duration="156.00" routeLength="670.69" waitingTime="67.00" waitingCount="2" stopTime="0.00" timeLoss="99.26" rerouteNo="0" devices="tripinfo_f_2.1" vType="DEFAULT_VEHTYPE" speedFactor="0.88" vaporized=""/>
    <tripinfo id="f_8.3" depart="26.00" departLane="E14_0" departPos="5.10" departSpeed="0.00" departDelay="1.68" arrival="170.00" arrivalLane="E0_0" arrivalPos="89.60" arrivalSpeed="11.97" duration="144.00" routeLength="673.37" waitingTime="19.00" waitingCount="3" stopTime="0.00" timeLoss="90.10" rerouteNo="0" devices="tripinfo_f_8.3" vType="DEFAULT_VEHTYPE" speedFactor="0.95" vaporized=""/>
    <tripinfo id="f_8.4" depart="34.00" departLane="E14_0" departPos="5.10" departSpeed="0.00" departDelay="1.57" arrival="172.00" arrivalLane="E0_0" arrivalPos="89.60" arrivalSpeed="13.34" duration="138.00" routeLength="673.37" waitingTime="9.00" waitingCount="2" stopTime="0.00" timeLoss="84.87" rerouteNo="0" devices="tripinfo_f_8.4" vType="DEFAULT_VEHTYPE" speedFactor="0.97" vaporized=""/>
    <tripinfo id="f_8.5" depart="42.00" departLane="E14_0" departPos="5.10" departSpeed="0.00" departDelay="1.46" arrival="173.00" arrivalLane="E0_0" arrivalPos="89.60" arrivalSpeed="13.53" duration="131.00" routeLength="673.37" waitingTime="2.00" waitingCount="1" stopTime="0.00" timeLoss="84.10" rerouteNo="0" devices="tripinfo_f_8.5" vType="DEFAULT_VEHTYPE" speedFactor="1.09" vaporized=""/>
    <tripinfo id="f_0.1" depart="24.00" departLane="E9_0" departPos="5.10" departSpeed="0.00" departDelay="4.65" arrival="175.00" arrivalLane="E7_0" arrivalPos="85.60" arrivalSpeed="13.34" duration="151.00" routeLength="660.57" waitingTime="45.00" waitingCount="3" stopTime="0.00" timeLoss="99.27" rerouteNo="0" devices="tripinfo_f_0.1" vType="DEFAULT_VEHTYPE" speedFactor="0.97" vaporized=""/>
    <tripinfo id="f_8.6" depart="57.00" departLane="E14_0" departPos="5.10" departSpeed="0.00" departDelay="8.35" arrival="175.00" arrivalLane="E0_0" arrivalPos="89.60" arrivalSpeed="11.12" duration="118.00" routeLength="673.37" waitingTime="1.00" waitingCount="1" stopTime="0.00" timeLoss="57.76" rerouteNo="0" devices="tripinfo_f_8.6" vType="DEFAULT_VEHTYPE" speedFactor="0.85" vaporized=""/>
    <tripinfo id="f_8.7" depart="60.00" departLane="E14_0" departPos="5.10" departSpeed="0.00" departDelay="3.24" arrival="177.00" arrivalLane="E0_0" arrivalPos="89.60" arrivalSpeed="14.56" duration="117.00" routeLength="673.37" waitingTime="6.00" waitingCount="1" stopTime="0.00" timeLoss="71.66" rerouteNo="0" devices="tripinfo_f_8.7" vType="DEFAULT_VEHTYPE" speedFactor="1.14" vaporized=""/>
    <tripinfo id="f_0.2" depart="40.00" departLane="E9_0" departPos="5.10" departSpeed="0.00" departDelay="1.29" arrival="180.00" arrivalLane="E7_0" arrivalPos="85.60" arrivalSpeed="11.96" duration="140.00" routeLength="660.57" waitingTime="28.00" waitingCount="2" stopTime="0.00" timeLoss="84.26" rerouteNo="0" devices="tripinfo_f_0.2" vType="DEFAULT_VEHTYPE" speedFactor="0.90" vaporized=""/>
    <tripinfo id="f_6.0" depart="0.00" departLane="E10_0" departPos="5.10" departSpeed="0.00" departDelay="0.00" arrival="182.00" arrivalLane="E12_0" arrivalPos="92.00" arrivalSpeed="6.69" duration="182.00" routeLength="679.77" waitingTime="101.00" waitingCount="3" stopTime="0.00" timeLoss="132.60" rerouteNo="0" devices="tripinfo_f_6.0" vType="DEFAULT_VEHTYPE" speedFactor="1.05" vaporized=""/>
    <tripinfo id="f_2.2" depart="27.00" departLane="E1_0" departPos="5.10" departSpeed="0.00" departDelay="1.47" arrival="183.00" arrivalLane="E19_0" arrivalPos="85.60" arrivalSpeed="14.56" duration="156.00" routeLength="670.69" waitingTime="54.00" waitingCount="3" stopTime="0.00" timeLoss="111.85" rerouteNo="0" devices="tripinfo_f_2.2" vType="DEFAULT_VEHTYPE" speedFactor="1.13" vaporized=""/>
    <tripinfo id="f_7.5" depart="32.00" departLane="E13_0" departPos="5.10" departSpeed="0.00" departDelay="0.43" arrival="183.00" arrivalLane="E14_0" arrivalPos="85.60" arrivalSpeed="7.20" duration="151.00" routeLength="670.69" waitingTime="61.00" waitingCount="3" stopTime="0.00" timeLoss="107.66" rerouteNo="0" devices="tripinfo_f_7.5" vType="DEFAULT_VEHTYPE" speedFactor="1.17" vaporized=""/>
    <tripinfo id="f_6.1" depart="12.00" departLane="E10_0" departPos="5.10" departSpeed="0.00" departDelay="3.55" arrival="184.00" arrivalLane="E12_0" arrivalPos="92.00" arrivalSpeed="8.30" duration="172.00" routeLength="679.77" waitingTime="81.00" waitingCount="3" stopTime="0.00" timeLoss="122.83" rerouteNo="0" devices="tripinfo_f_6.1" vType="DEFAULT_VEHTYPE" speedFactor="1.03" vaporized=""/>
    <tripinfo id="f_2.3" depart="39.00" departLane="E1_0" departPos="5.10" departSpeed="0.00" departDelay="0.71" arrival="186.00" arrivalLane="E19_0" arrivalPos="85.60" arrivalSpeed="13.35" duration="147.00" routeLength="670.69" waitingTime="41.00" waitingCount="3" stopTime="0.00" timeLoss="98.01" rerouteNo="0" devices="tripinfo_f_2.3" vType="DEFAULT_VEHTYPE" speedFactor="1.03" vaporized=""/>
    <tripinfo id="f_9.4" depart="42.00" departLane="E15_0" departPos="5.10" departSpeed="0.00" departDelay="0.62" arrival="187.00" arrivalLane="E5_0" arrivalPos="85.60" arrivalSpeed="13.80" duration="145.00" routeLength="669.14" waitingTime="65.00" waitingCount="2" stopTime="0.00" timeLoss="96.30" rerouteNo="0" devices="tripinfo_f_9.4" vType="DEFAULT_VEHTYPE" speedFactor="1.04" vaporized=""/>
    <tripinfo id="f_4.2" depart="22.00" departLane="E21_0" departPos="5.10" departSpeed="0.00" departDelay="0.18" arrival="190.00" arrivalLane="E23_0" arrivalPos="89.60" arrivalSpeed="11.75" duration="168.00" routeLength="662.12" waitingTime="50.00" waitingCount="4" stopTime="0.00" timeLoss="110.70" rerouteNo="0" devices="tripinfo_f_4.2" vType="DEFAULT_VEHTYPE" speedFactor="0.87" vaporized=""/>
    <tripinfo id="f_2.4" depart="52.00" departLane="E1_0" departPos="5.10" departSpeed="0.00" departDelay="0.94" arrival="190.00" arrivalLane="E19_0" arrivalPos="85.60" arrivalSpeed="14.65" duration="138.00" routeLength="670.69" waitingTime="34.00" waitingCount="2" stopTime="0.00" timeLoss="91.85" rerouteNo="0" devices="tripinfo_f_2.4" vType="DEFAULT_VEHTYPE" speedFactor="1.10" vaporized=""/>
    <tripinfo id="f_4.3" depart="33.00" departLane="E21_0" departPos="5.10" departSpeed="0.00" departDelay="0.27" arrival="192.00" arrivalLane="E23_0" arrivalPos="89.60" arrivalSpeed="12.95" duration="159.00" routeLength="662.12" waitingTime="47.00" waitingCount="3" stopTime="0.00" timeLoss="110.53" rerouteNo="0" devices="tripinfo_f_4.3" vType="DEFAULT_VEHTYPE" speedFactor="1.02" vaporized=""/>
    <tripinfo id="f_5.2" depart="21.00" departLane="E6_0" departPos="5.10" departSpeed="0.00" departDelay="0.66" arrival="193.00" arrivalLane="E8_0" arrivalPos="92.00" arrivalSpeed="9.85" duration="172.00" routeLength="662.40" waitingTime="70.00" waitingCount="4" stopTime="0.00" timeLoss="114.70" rerouteNo="0" devices="tripinfo_f_5.2" vType="DEFAULT_VEHTYPE" speedFactor="0.89" vaporized=""/>
    <tripinfo id="f_4.4" depart="44.00" departLane="E21_0" departPos="5.10" departSpeed="0.00" departDelay="0.36" arrival="195.00" arrivalLane="E23_0" arrivalPos="89.60" arrivalSpeed="14.89" duration="151.00" routeLength="662.12" waitingTime="39.00" waitingCount="4" stopTime="0.00" timeLoss="104.81" rerouteNo="0" devices="tripinfo_f_4.4" vType="DEFAULT_VEHTYPE" speedFactor="1.09" vaporized=""/>
    <tripinfo id="f_5.3" depart="38.00" departLane="E6_0" departPos="5.10" departSpeed="0.00" departDelay="7.49" arrival="200.00" arrivalLane="E8_0" arrivalPos="92.00" arrivalSpeed="13.70" duration="162.00" routeLength="662.40" waitingTime="77.00" waitingCount="3" stopTime="0.00" timeLoss="111.90" rerouteNo="0" devices="tripinfo_f_5.3" vType="DEFAULT_VEHTYPE" speedFactor="1.01" vaporized=""/>
    <tripinfo id="f_5.4" depart="41.00" departLane="E6_0" departPos="5.10" departSpeed="0.00" departDelay="0.32" arrival="202.00" arrivalLane="E8_0" arrivalPos="92.00" arrivalSpeed="12.97" duration="161.00" routeLength="662.40" waitingTime="70.00" waitingCount="3" stopTime="0.00" timeLoss="107.83" rerouteNo="0" devices="tripinfo_f_5.4" vType="DEFAULT_VEHTYPE" speedFactor="0.96" vaporized=""/>
    <tripinfo id="f_3.1" depart="24.00" departLane="E1_0" departPos="5.10" departSpeed="0.00" departDelay="0.92" arrival="214.00" arrivalLane="E22_0" arrivalPos="92.00" arrivalSpeed="6.68" duration="190.00" routeLength="679.26" waitingTime="74.00" waitingCount="5" stopTime="0.00" timeLoss="135.57" rerouteNo="0" devices="tripinfo_f_3.1" vType="DEFAULT_VEHTYPE" speedFactor="0.92" vaporized=""/>
    <tripinfo id="f_3.2" depart="47.00" departLane="E1_0" departPos="5.10" departSpeed="0.00" departDelay="0.85" arrival="216.00" arrivalLane="E22_0" arrivalPos="92.00" arrivalSpeed="7.28" duration="169.00" routeLength="679.26" waitingTime="49.00" waitingCount="3" stopTime="0.00" timeLoss="111.84" rerouteNo="0" devices="tripinfo_f_3.2" vType="DEFAULT_VEHTYPE" speedFactor="0.88" vaporized=""/>
    <tripinfo id="f_1.1" depart="16.00" departLane="E17_0" departPos="5.10" departSpeed="0.00" departDelay="0.62" arrival="223.00" arrivalLane="E15_0" arrivalPos="92.00" arrivalSpeed="12.86" duration="207.00" routeLength="679.54" waitingTime="100.00" waitingCount="4" stopTime="0.00" timeLoss="151.88" rerouteNo="0" devices="tripinfo_f_1.1" vType="DEFAULT_VEHTYPE" speedFactor="0.94" vaporized=""/>
    <tripinfo id="f_6.2" depart="17.00" departLane="E10_0" departPos="5.10" departSpeed="0.00" departDelay="0.10" arrival="229.00" arrivalLane="E12_0" arrivalPos="92.00" arrivalSpeed="15.97" duration="212.00" routeLength="679.77" waitingTime="112.00" waitingCount="4" stopTime="0.00" timeLoss="168.01" rerouteNo="0" devices="tripinfo_f_6.2" vType="DEFAULT_VEHTYPE" speedFactor="1.16" vaporized=""/>
    <tripinfo id="f_1.2" depart="36.00" departLane="E17_0" departPos="5.10" departSpeed="0.00" departDelay="5.23" arrival="232.00" arrivalLane="E15_0" arrivalPos="92.00" arrivalSpeed="8.67" duration="196.00" routeLength="679.54" waitingTime="65.00" waitingCount="4" stopTime="0.00" timeLoss="151.21" rerouteNo="0" devices="tripinfo_f_1.2" vType="DEFAULT_VEHTYPE" speedFactor="1.15" vaporized=""/>
    <tripinfo id="f_6.3" depart="31.00" departLane="E10_0" departPos="5.10" departSpeed="0.00" departDelay="5.65" arrival="234.00" arrivalLane="E12_0" arrivalPos="92.00" arrivalSpeed="11.91" duration="203.00" routeLength="679.77" waitingTime="91.00" waitingCount="4" stopTime="0.00" timeLoss="148.51" rerouteNo="0" devices="tripinfo_f_6.3" vType="DEFAULT_VEHTYPE" speedFactor="0.93" vaporized=""/>
    <tripinfo id="f_6.4" depart="34.00" departLane="E10_0" departPos="5.10" departSpeed="0.00" departDelay="0.20" arrival="236.00" arrivalLane="E12_0" arrivalPos="92.00" arrivalSpeed="15.55" duration="202.00" routeLength="679.77" waitingTime="86.00" waitingCount="5" stopTime="0.00" timeLoss="158.24" rerouteNo="0" devices="tripinfo_f_6.4" vType="DEFAULT_VEHTYPE" speedFactor="1.18" vaporized=""/>
    <tripinfo id="f_1.3" depart="47.00" departLane="E17_0" departPos="5.10" departSpeed="0.00" departDelay="0.85" arrival="236.00" arrivalLane="E15_0" arrivalPos="92.00" arrivalSpeed="9.25" duration="189.00" routeLength="679.54" waitingTime="54.00" waitingCount="3" stopTime="0.00" timeLoss="132.28" rerouteNo="0" devices="tripinfo_f_1.3" vType="DEFAULT_VEHTYPE" speedFactor="0.90" vaporized=""/>
    <tripinfo id="f_6.5" depart="43.00" departLane="E10_0" departPos="5.10" departSpeed="0.00" departDelay="0.75" arrival="239.00" arrivalLane="E12_0" arrivalPos="92.00" arrivalSpeed="14.27" duration="196.00" routeLength="679.77" waitingTime="75.00" waitingCount="5" stopTime="0.00" timeLoss="146.66" rerouteNo="0" devices="tripinfo_f_6.5" vType="DEFAULT_VEHTYPE" speedFactor="1.04" vaporized=""/>
    <tripinfo id="f_6.6" depart="54.00" departLane="E10_0" departPos="5.10" departSpeed="0.00" departDelay="3.30" arrival="242.00" arrivalLane="E12_0" arrivalPos="92.00" arrivalSpeed="15.69" duration="188.00" routeLength="679.77" waitingTime="56.00" waitingCount="3" stopTime="0.00" timeLoss="144.12" rerouteNo="0" devices="tripinfo_f_6.6" vType="DEFAULT_VEHTYPE" speedFactor="1.17" vaporized=""/>
    <tripinfo id="f_6.7" depart="60.00" departLane="E10_0" departPos="5.10" departSpeed="0.00" departDelay="0.85" arrival="248.00" arrivalLane="E12_0" arrivalPos="92.00" arrivalSpeed="13.10" duration="188.00" routeLength="679.77" waitingTime="57.00" waitingCount="2" stopTime="0.00" timeLoss="135.73" rerouteNo="0" devices="tripinfo_f_6.7" vType="DEFAULT_VEHTYPE" speedFactor="0.97" vaporized=""/>
    <tripinfo id="f_5.5" depart="54.00" departLane="E6_0" departPos="5.10" departSpeed="0.00" departDelay="3.16" arrival="249.00" arrivalLane="E8_0" arrivalPos="92.00" arrivalSpeed="11.30" duration="195.00" routeLength="662.40" waitingTime="109.00" waitingCount="2" stopTime="0.00" timeLoss="135.34" rerouteNo="0" devices="tripinfo_f_5.5" vType="DEFAULT_VEHTYPE" speedFactor="0.85" vaporized=""/>
    <tripinfo id="f_6.8" depart="69.00" departLane="E10_0" departPos="5.10" departSpeed="0.00" departDelay="1.40" arrival="252.00" arrivalLane="E12_0" arrivalPos="92.00" arrivalSpeed="12.69" duration="183.00" routeLength="679.77" waitingTime="53.00" waitingCount="2" stopTime="0.00" timeLoss="126.11" rerouteNo="0" devices="tripinfo_f_6.8" vType="DEFAULT_VEHTYPE" speedFactor="0.91" vaporized=""/>
    <tripinfo id="f_7.6" depart="42.00" departLane="E13_0" departPos="5.10" departSpeed="0.00" departDelay="4.11" arrival="278.00" arrivalLane="E14_0" arrivalPos="85.60" arrivalSpeed="7.73" duration="236.00" routeLength="670.69" waitingTime="129.00" waitingCount="5" stopTime="0.00" timeLoss="189.78" rerouteNo="0" devices="tripinfo_f_7.6" vType="DEFAULT_VEHTYPE" speedFactor="1.10" vaporized=""/>
    <tripinfo id="f_7.7" depart="49.00" departLane="E13_0" departPos="5.10" departSpeed="0.00" departDelay="4.80" arrival="280.00" arrivalLane="E14_0" arrivalPos="85.60" arrivalSpeed="8.60" duration="231.00" routeLength="670.69" waitingTime="117.00" waitingCount="5" stopTime="0.00" timeLoss="180.99" rerouteNo="0" devices="tripinfo_f_7.7" vType="DEFAULT_VEHTYPE" speedFactor="1.00" vaporized=""/>
    <tripinfo id="f_3.3" depart="70.00" departLane="E1_0" departPos="5.10" departSpeed="0.00" departDelay="0.77" arrival="280.00" arrivalLane="E22_0" arrivalPos="92.00" arrivalSpeed="6.80" duration="210.00" routeLength="679.26" waitingTime="80.00" waitingCount="5" stopTime="0.00" timeLoss="162.11" rerouteNo="0" devices="tripinfo_f_3.3" vType="DEFAULT_VEHTYPE" speedFactor="1.04" vaporized=""/>
    <tripinfo id="f_7.8" depart="52.00" departLane="E13_0" departPos="5.10" departSpeed="0.00" departDelay="1.48" arrival="282.00" arrivalLane="E14_0" arrivalPos="85.60" arrivalSpeed="12.02" duration="230.00" routeLength="670.69" waitingTime="114.00" waitingCount="5" stopTime="0.00" timeLoss="180.40" rerouteNo="0" devices="tripinfo_f_7.8" vType="DEFAULT_VEHTYPE" speedFactor="1.02" vaporized=""/>
    <tripinfo id="f_7.9" depart="57.00" departLane="E13_0" departPos="5.10" departSpeed="0.00" departDelay="0.17" arrival="284.00" arrivalLane="E14_0" arrivalPos="85.60" arrivalSpeed="12.08" duration="227.00" routeLength="670.69" waitingTime="107.00" waitingCount="5" stopTime="0.00" timeLoss="171.38" rerouteNo="0" devices="tripinfo_f_7.9" vType="DEFAULT_VEHTYPE" speedFactor="0.90" vaporized=""/>
    <tripinfo id="f_7.10" depart="65.00" departLane="E13_0" departPos="5.10" departSpeed="0.00" departDelay="1.85" arrival="286.00" arrivalLane="E14_0" arrivalPos="85.60" arrivalSpeed="12.45" duration="221.00" routeLength="670.69" waitingTime="94.00" waitingCount="5" stopTime="0.00" timeLoss="167.76" rerouteNo="0" devices="tripinfo_f_7.10" vType="DEFAULT_VEHTYPE" speedFactor="0.94" vaporized=""/>
    <tripinfo id="f_9.5" depart="86.00" departLane="E15_0" departPos="5.10" departSpeed="0.00" departDelay="34.28" arrival="306.00" arrivalLane="E5_0" arrivalPos="85.60" arrivalSpeed="13.62" duration="220.00" routeLength="669.14" waitingTime="100.00" waitingCount="6" stopTime="0.00" timeLoss="169.90" rerouteNo="0" devices="tripinfo_f_9.5" vType="DEFAULT_VEHTYPE" speedFactor="1.00" vaporized=""/>
    <tripinfo id="f_9.6" depart="89.00" departLane="E15_0" departPos="5.10" departSpeed="0.00" departDelay="26.94" arrival="308.00" arrivalLane="E5_0" arrivalPos="85.60" arrivalSpeed="13.27" duration="219.00" routeLength="669.14" waitingTime="95.00" waitingCount="6" stopTime="0.00" timeLoss="169.22" rerouteNo="0" devices="tripinfo_f_9.6" vType="DEFAULT_VEHTYPE" speedFactor="1.02" vaporized=""/>
    <tripinfo id="f_9.7" depart="92.00" departLane="E15_0" departPos="5.10" departSpeed="0.00" departDelay="19.59" arrival="310.00" arrivalLane="E5_0" arrivalPos="85.60" arrivalSpeed="12.33" duration="218.00" routeLength="669.14" waitingTime="89.00" waitingCount="6" stopTime="0.00" timeLoss="164.03" rerouteNo="0" devices="tripinfo_f_9.7" vType="DEFAULT_VEHTYPE" speedFactor="0.94" vaporized=""/>
    <tripinfo id="f_5.6" depart="85.00" departLane="E6_0" departPos="5.10" departSpeed="0.00" departDelay="23.99" arrival="311.00" arrivalLane="E8_0" arrivalPos="92.00" arrivalSpeed="9.93" duration="226.00" routeLength="662.40" waitingTime="113.00" waitingCount="7" stopTime="0.00" timeLoss="180.80" rerouteNo="0" devices="tripinfo_f_5.6" vType="DEFAULT_VEHTYPE" speedFactor="1.12" vaporized=""/>
    <tripinfo id="f_9.8" depart="95.00" departLane="E15_0" departPos="5.10" departSpeed="0.00" departDelay="12.25" arrival="312.00" arrivalLane="E5_0" arrivalPos="85.60" arrivalSpeed="13.04" duration="217.00" routeLength="669.14" waitingTime="82.00" waitingCount="5" stopTime="0.00" timeLoss="167.32" rerouteNo="0" devices="tripinfo_f_9.8" vType="DEFAULT_VEHTYPE" speedFactor="1.02" vaporized=""/>
    <tripinfo id="f_4.5" depart="59.00" departLane="E21_0" departPos="5.10" departSpeed="0.00" departDelay="4.46" arrival="313.00" arrivalLane="E23_0" arrivalPos="89.60" arrivalSpeed="8.57" duration="254.00" routeLength="662.12" waitingTime="127.00" waitingCount="7" stopTime="0.00" timeLoss="204.21" rerouteNo="0" devices="tripinfo_f_4.5" vType="DEFAULT_VEHTYPE" speedFactor="1.00" vaporized=""/>
    <tripinfo id="f_5.7" depart="88.00" departLane="E6_0" departPos="5.10" departSpeed="0.00" departDelay="16.82" arrival="313.00" arrivalLane="E8_0" arrivalPos="92.00" arrivalSpeed="11.35" duration="225.00" routeLength="662.40" waitingTime="105.00" waitingCount="6" stopTime="0.00" timeLoss="174.88" rerouteNo="0" devices="tripinfo_f_5.7" vType="DEFAULT_VEHTYPE" speedFactor="1.02" vaporized=""/>
    <tripinfo id="f_3.4" depart="93.00" departLane="E1_0" departPos="5.10" departSpeed="0.00" departDelay="0.70" arrival="314.00" arrivalLane="E22_0" arrivalPos="92.00" arrivalSpeed="12.86" duration="221.00" routeLength="679.26" waitingTime="94.00" waitingCount="4" stopTime="0.00" timeLoss="172.56" rerouteNo="0" devices="tripinfo_f_3.4" vType="DEFAULT_VEHTYPE" speedFactor="1.02" vaporized=""/>
    <tripinfo id="f_4.6" depart="66.00" departLane="E21_0" departPos="5.10" departSpeed="0.00" departDelay="0.55" arrival="315.00" arrivalLane="E23_0" arrivalPos="89.60" arrivalSpeed="9.33" duration="249.00" routeLength="662.12" waitingTime="112.00" waitingCount="6" stopTime="0.00" timeLoss="192.92" rerouteNo="0" devices="tripinfo_f_4.6" vType="DEFAULT_VEHTYPE" speedFactor="0.91" vaporized=""/>
    <tripinfo id="f_5.8" depart="91.00" departLane="E6_0" departPos="5.10" departSpeed="0.00" departDelay="9.65" arrival="315.00" arrivalLane="E8_0" arrivalPos="92.00" arrivalSpeed="12.96" duration="224.00" routeLength="662.40" waitingTime="101.00" waitingCount="7" stopTime="0.00" timeLoss="175.94" rerouteNo="0" devices="tripinfo_f_5.8" vType="DEFAULT_VEHTYPE" speedFactor="1.09" vaporized=""/>
    <tripinfo id="f_9.9" depart="98.00" departLane="E15_0" departPos="5.10" departSpeed="0.00" departDelay="4.90" arrival="315.00" arrivalLane="E5_0" arrivalPos="85.60" arrivalSpeed="10.75" duration="217.00" routeLength="669.14" waitingTime="76.00" waitingCount="6" stopTime="0.00" timeLoss="155.79" rerouteNo="0" devices="tripinfo_f_9.9" vType="DEFAULT_VEHTYPE" speedFactor="0.83" vaporized=""/>
    <tripinfo id="f_5.9" depart="106.00" departLane="E6_0" departPos="5.10" departSpeed="0.00" departDelay="14.48" arrival="316.00" arrivalLane="E8_0" arrivalPos="92.00" arrivalSpeed="12.39" duration="210.00" routeLength="662.40" waitingTime="89.00" waitingCount="6" stopTime="0.00" timeLoss="159.31" rerouteNo="0" devices="tripinfo_f_5.9" vType="DEFAULT_VEHTYPE" speedFactor="1.01" vaporized=""/>
    <tripinfo id="f_4.7" depart="77.00" departLane="E21_0" departPos="5.10" departSpeed="0.00" departDelay="0.64" arrival="317.00" arrivalLane="E23_0" arrivalPos="89.60" arrivalSpeed="10.87" duration="240.00" routeLength="662.12" waitingTime="99.00" waitingCount="5" stopTime="0.00" timeLoss="192.11" rerouteNo="0" devices="tripinfo_f_4.7" vType="DEFAULT_VEHTYPE" speedFactor="1.03" vaporized=""/>