<?xml version="1.0" encoding="UTF-8"?>

<!-- generated on 2024-11-05 21:49:55 by Eclipse SUMO sumo Version 1.21.0
<sumoConfiguration xmlns:xsi="http://www.w3.org/2001/XMLSchema-instance" xsi:noNamespaceSchemaLocation="http://sumo.dlr.de/xsd/sumoConfiguration.xsd">

    <input>
        <net-file value="../sumo/test.net.xml"/>
        <route-files value="../sumo/test.rou.xml"/>
        <additional-files value="../sumo/test.add.xml"/>
    </input>

    <output>
        <tripinfo-output value="../sumo/tripinfo.xml"/>
    </output>

</sumoConfiguration>
-->

<tripinfos xmlns:xsi="http://www.w3.org/2001/XMLSchema-instance" xsi:noNamespaceSchemaLocation="http://sumo.dlr.de/xsd/tripinfo_file.xsd">
    <tripinfo id="f_10.0" depart="0.00" departLane="E19_0" departPos="5.10" departSpeed="0.00" departDelay="0.00" arrival="81.00" arrivalLane="E22_0" arrivalPos="92.00" arrivalSpeed="14.03" duration="81.00" routeLength="870.69" waitingTime="0.00" waitingCount="0" stopTime="0.00" timeLoss="22.42" rerouteNo="0" devices="tripinfo_f_10.0" vType="DEFAULT_VEHTYPE" speedFactor="1.09" vaporized=""/>
    <tripinfo id="f_1.0" depart="0.00" departLane="E6_0" departPos="5.10" departSpeed="0.00" departDelay="0.00" arrival="90.00" arrivalLane="E22_0" arrivalPos="92.00" arrivalSpeed="12.92" duration="90.00" routeLength="863.95" waitingTime="0.00" waitingCount="0" stopTime="0.00" timeLoss="19.78" rerouteNo="0" devices="tripinfo_f_1.0" vType="DEFAULT_VEHTYPE" speedFactor="0.94" vaporized=""/>
    <tripinfo id="f_0.0" depart="0.00" departLane="E21_0" departPos="5.10" departSpeed="0.00" departDelay="0.00" arrival="94.00" arrivalLane="E21_0" arrivalPos="89.60" arrivalSpeed="14.13" duration="94.00" routeLength="866.12" waitingTime="4.00" waitingCount="1" stopTime="0.00" timeLoss="33.39" rerouteNo="0" devices="tripinfo_f_0.0" vType="DEFAULT_VEHTYPE" speedFactor="1.06" vaporized=""/>
    <tripinfo id="f_4.0" depart="0.00" departLane="E23_0" departPos="5.10" departSpeed="0.00" departDelay="0.00" arrival="104.00" arrivalLane="E11_0" arrivalPos="92.00" arrivalSpeed="13.01" duration="104.00" routeLength="874.69" waitingTime="7.00" waitingCount="2" stopTime="0.00" timeLoss="40.80" rerouteNo="0" devices="tripinfo_f_4.0" vType="DEFAULT_VEHTYPE" speedFactor="1.03" vaporized=""/>
    <tripinfo id="f_6.0" depart="0.00" departLane="E4_0" departPos="5.10" departSpeed="0.00" departDelay="0.00" arrival="105.00" arrivalLane="E20_0" arrivalPos="89.60" arrivalSpeed="13.85" duration="105.00" routeLength="864.57" waitingTime="19.00" waitingCount="1" stopTime="0.00" timeLoss="42.53" rerouteNo="0" devices="tripinfo_f_6.0" vType="DEFAULT_VEHTYPE" speedFactor="1.05" vaporized=""/>
    <tripinfo id="f_2.0" depart="0.00" departLane="E7_0" departPos="5.10" departSpeed="0.00" departDelay="0.00" arrival="107.00" arrivalLane="E23_0" arrivalPos="89.60" arrivalSpeed="13.80" duration="107.00" routeLength="863.67" waitingTime="18.00" waitingCount="2" stopTime="0.00" timeLoss="43.47" rerouteNo="0" devices="tripinfo_f_2.0" vType="DEFAULT_VEHTYPE" speedFactor="1.01" vaporized=""/>
    <tripinfo id="f_3.0" depart="3.00" departLane="E21_0" departPos="5.10" departSpeed="0.00" departDelay="3.00" arrival="110.00" arrivalLane="E9_0" arrivalPos="85.60" arrivalSpeed="14.63" duration="107.00" routeLength="857.78" waitingTime="18.00" waitingCount="1" stopTime="0.00" timeLoss="46.74" rerouteNo="0" devices="tripinfo_f_3.0" vType="DEFAULT_VEHTYPE" speedFactor="1.08" vaporized=""/>
    <tripinfo id="f_5.0" depart="0.00" departLane="E22_0" departPos="5.10" departSpeed="0.00" departDelay="0.00" arrival="116.00" arrivalLane="E6_0" arrivalPos="89.60" arrivalSpeed="11.05" duration="116.00" routeLength="872.24" waitingTime="9.00" waitingCount="2" stopTime="0.00" timeLoss="38.77" rerouteNo="0" devices="tripinfo_f_5.0" vType="DEFAULT_VEHTYPE" speedFactor="0.83" vaporized=""/>
    <tripinfo id="f_9.0" depart="0.00" departLane="E20_0" departPos="5.10" departSpeed="0.00" departDelay="0.00" arrival="117.00" arrivalLane="E8_0" arrivalPos="92.00" arrivalSpeed="11.44" duration="117.00" routeLength="872.75" waitingTime="8.00" waitingCount="2" stopTime="0.00" timeLoss="39.36" rerouteNo="0" devices="tripinfo_f_9.0" vType="DEFAULT_VEHTYPE" speedFactor="0.86" vaporized=""/>
    <tripinfo id="f_8.0" depart="3.00" departLane="E7_0" departPos="5.10" departSpeed="0.00" departDelay="3.00" arrival="124.00" arrivalLane="E23_0" arrivalPos="89.60" arrivalSpeed="11.74" duration="121.00" routeLength="863.67" waitingTime="19.00" waitingCount="3" stopTime="0.00" timeLoss="51.59" rerouteNo="0" devices="tripinfo_f_8.0" vType="DEFAULT_VEHTYPE" speedFactor="0.94" vaporized=""/>
    <tripinfo id="f_7.0" depart="0.00" departLane="E1_0" departPos="5.10" departSpeed="0.00" departDelay="0.00" arrival="155.00" arrivalLane="E17_0" arrivalPos="89.60" arrivalSpeed="11.05" duration="155.00" routeLength="866.35" waitingTime="45.00" waitingCount="3" stopTime="0.00" timeLoss="80.62" rerouteNo="0" devices="tripinfo_f_7.0" vType="DEFAULT_VEHTYPE" speedFactor="0.89" vaporized=""/>
    <tripinfo id="f_0.1" depart="400.00" departLane="E21_0" departPos="5.10" departSpeed="0.00" departDelay="0.00" arrival="493.00" arrivalLane="E21_0" arrivalPos="89.60" arrivalSpeed="14.11" duration="93.00" routeLength="866.12" waitingTime="6.00" waitingCount="1" stopTime="0.00" timeLoss="29.81" rerouteNo="0" devices="tripinfo_f_0.1" vType="DEFAULT_VEHTYPE" speedFactor="1.03" vaporized=""/>
    <tripinfo id="f_8.1" depart="400.00" departLane="E7_0" departPos="5.10" departSpeed="0.00" departDelay="0.00" arrival="496.00" arrivalLane="E23_0" arrivalPos="89.60" arrivalSpeed="12.84" duration="96.00" routeLength="863.67" waitingTime="0.00" waitingCount="0" stopTime="0.00" timeLoss="26.72" rerouteNo="0" devices="tripinfo_f_8.1" vType="DEFAULT_VEHTYPE" speedFactor="0.93" vaporized=""/>
    <tripinfo id="f_1.1" depart="400.00" departLane="E6_0" departPos="5.10" departSpeed="0.00" departDelay="0.00" arrival="498.00" arrivalLane="E22_0" arrivalPos="92.00" arrivalSpeed="13.61" duration="98.00" routeLength="863.95" waitingTime="9.00" waitingCount="2" stopTime="0.00" timeLoss="36.04" rerouteNo="0" devices="tripinfo_f_1.1" vType="DEFAULT_VEHTYPE" speedFactor="1.05" vaporized=""/>
    <tripinfo id="f_6.1" depart="400.00" departLane="E4_0" departPos="5.10" departSpeed="0.00" departDelay="0.00" arrival="513.00" arrivalLane="E20_0" arrivalPos="89.60" arrivalSpeed="13.16" duration="113.00" routeLength="864.57" waitingTime="25.00" waitingCount="1" stopTime="0.00" timeLoss="47.13" rerouteNo="0" devices="tripinfo_f_6.1" vType="DEFAULT_VEHTYPE" speedFactor="0.99" vaporized=""/>
    <tripinfo id="f_9.1" depart="400.00" departLane="E20_0" departPos="5.10" departSpeed="0.00" departDelay="0.00" arrival="518.00" arrivalLane="E8_0" arrivalPos="92.00" arrivalSpeed="11.34" duration="118.00" routeLength="872.75" waitingTime="11.00" waitingCount="2" stopTime="0.00" timeLoss="43.95" rerouteNo="0" devices="tripinfo_f_9.1" vType="DEFAULT_VEHTYPE" speedFactor="0.88" vaporized=""/>
    <tripinfo id="f_3.1" depart="403.00" departLane="E21_0" departPos="5.10" departSpeed="0.00" departDelay="3.00" arrival="521.00" arrivalLane="E9_0" arrivalPos="85.60" arrivalSpeed="5.30" duration="118.00" routeLength="857.78" waitingTime="21.00" waitingCount="4" stopTime="0.00" timeLoss="60.25" rerouteNo="0" devices="tripinfo_f_3.1" vType="DEFAULT_VEHTYPE" speedFactor="1.12" vaporized=""/>
    <tripinfo id="f_5.1" depart="450.00" departLane="E22_0" departPos="5.10" departSpeed="0.00" departDelay="0.00" arrival="541.00" arrivalLane="E6_0" arrivalPos="89.60" arrivalSpeed="15.59" duration="91.00" routeLength="872.24" waitingTime="13.00" waitingCount="1" stopTime="0.00" timeLoss="35.83" rerouteNo="0" devices="tripinfo_f_5.1" vType="DEFAULT_VEHTYPE" speedFactor="1.16" vaporized=""/>
    <tripinfo id="f_2.1" depart="450.00" departLane="E7_0" departPos="5.10" departSpeed="0.00" departDelay="0.00" arrival="544.00" arrivalLane="E23_0" arrivalPos="89.60" arrivalSpeed="11.97" duration="94.00" routeLength="863.67" waitingTime="0.00" waitingCount="0" stopTime="0.00" timeLoss="24.91" rerouteNo="0" devices="tripinfo_f_2.1" vType="DEFAULT_VEHTYPE" speedFactor="0.94" vaporized=""/>
    <tripinfo id="f_10.1" depart="450.00" departLane="E19_0" departPos="5.10" departSpeed="0.00" departDelay="0.00" arrival="548.00" arrivalLane="E22_0" arrivalPos="92.00" arrivalSpeed="12.76" duration="98.00" routeLength="870.69" waitingTime="9.00" waitingCount="1" stopTime="0.00" timeLoss="33.98" rerouteNo="0" devices="tripinfo_f_10.1" vType="DEFAULT_VEHTYPE" speedFactor="1.01" vaporized=""/>
    <tripinfo id="f_4.1" depart="450.00" departLane="E23_0" departPos="5.10" departSpeed="0.00" departDelay="0.00" arrival="550.00" arrivalLane="E11_0" arrivalPos="92.00" arrivalSpeed="11.85" duration="100.00" routeLength="874.69" waitingTime="5.00" waitingCount="1" stopTime="0.00" timeLoss="30.51" rerouteNo="0" devices="tripinfo_f_4.1" vType="DEFAULT_VEHTYPE" speedFactor="0.94" vaporized=""/>
    <tripinfo id="f_7.1" depart="450.00" departLane="E1_0" departPos="5.10" departSpeed="0.00" departDelay="0.00" arrival="568.00" arrivalLane="E17_0" arrivalPos="89.60" arrivalSpeed="13.92" duration="118.00" routeLength="866.35" waitingTime="23.00" waitingCount="2" stopTime="0.00" timeLoss="54.47" rerouteNo="0" devices="tripinfo_f_7.1" vType="DEFAULT_VEHTYPE" speedFactor="1.02" vaporized=""/>
    <tripinfo id="f_0.2" depart="800.00" departLane="E21_0" departPos="5.10" departSpeed="0.00" departDelay="0.00" arrival="892.00" arrivalLane="E21_0" arrivalPos="89.60" arrivalSpeed="13.00" duration="92.00" routeLength="866.12" waitingTime="2.00" waitingCount="1" stopTime="0.00" timeLoss="24.82" rerouteNo="0" devices="tripinfo_f_0.2" vType="DEFAULT_VEHTYPE" speedFactor="0.97" vaporized=""/>
    <tripinfo id="f_8.2" depart="800.00" departLane="E7_0" departPos="5.10" departSpeed="0.00" departDelay="0.00" arrival="906.00" arrivalLane="E23_0" arrivalPos="89.60" arrivalSpeed="12.72" duration="106.00" routeLength="863.67" waitingTime="7.00" waitingCount="2" stopTime="0.00" timeLoss="35.93" rerouteNo="0" devices="tripinfo_f_8.2" vType="DEFAULT_VEHTYPE" speedFactor="0.92" vaporized=""/>
    <tripinfo id="f_1.2" depart="800.00" departLane="E6_0" departPos="5.10" departSpeed="0.00" departDelay="0.00" arrival="908.00" arrivalLane="E22_0" arrivalPos="92.00" arrivalSpeed="11.74" duration="108.00" routeLength="863.95" waitingTime="5.00" waitingCount="2" stopTime="0.00" timeLoss="34.35" rerouteNo="0" devices="tripinfo_f_1.2" vType="DEFAULT_VEHTYPE" speedFactor="0.89" vaporized=""/>
    <tripinfo id="f_9.2" depart="800.00" departLane="E20_0" departPos="5.10" departSpeed="0.00" departDelay="0.00" arrival="918.00" arrivalLane="E8_0" arrivalPos="92.00" arrivalSpeed="12.76" duration="118.00" routeLength="872.75" waitingTime="16.00" waitingCount="3" stopTime="0.00" timeLoss="48.32" rerouteNo="0" devices="tripinfo_f_9.2" vType="DEFAULT_VEHTYPE" speedFactor="0.95" vaporized=""/>
    <tripinfo id="f_3.2" depart="803.00" departLane="E21_0" departPos="5.10" departSpeed="0.00" departDelay="3.00" arrival="925.00" arrivalLane="E9_0" arrivalPos="85.60" arrivalSpeed="10.24" duration="122.00" routeLength="857.78" waitingTime="16.00" waitingCount="2" stopTime="0.00" timeLoss="42.93" rerouteNo="0" devices="tripinfo_f_3.2" vType="DEFAULT_VEHTYPE" speedFactor="0.83" vaporized=""/>
    <tripinfo id="f_6.2" depart="800.00" departLane="E4_0" departPos="5.10" departSpeed="0.00" departDelay="0.00" arrival="925.00" arrivalLane="E20_0" arrivalPos="89.60" arrivalSpeed="11.06" duration="125.00" routeLength="864.57" waitingTime="12.00" waitingCount="3" stopTime="0.00" timeLoss="50.69" rerouteNo="0" devices="tripinfo_f_6.2" vType="DEFAULT_VEHTYPE" speedFactor="0.87" vaporized=""/>
    <tripinfo id="f_2.2" depart="900.00" departLane="E7_0" departPos="5.10" departSpeed="0.00" departDelay="0.00" arrival="977.00" arrivalLane="E23_0" arrivalPos="89.60" arrivalSpeed="15.33" duration="77.00" routeLength="863.67" waitingTime="0.00" waitingCount="0" stopTime="0.00" timeLoss="20.30" rerouteNo="0" devices="tripinfo_f_2.2" vType="DEFAULT_VEHTYPE" speedFactor="1.13" vaporized=""/>
    <tripinfo id="f_5.2" depart="901.00" departLane="E22_0" departPos="5.10" departSpeed="0.00" departDelay="1.00" arrival="986.00" arrivalLane="E6_0" arrivalPos="89.60" arrivalSpeed="16.23" duration="85.00" routeLength="872.24" waitingTime="3.00" waitingCount="1" stopTime="0.00" timeLoss="30.27" rerouteNo="0" devices="tripinfo_f_5.2" vType="DEFAULT_VEHTYPE" speedFactor="1.18" vaporized=""/>
    <tripinfo id="f_4.2" depart="900.00" departLane="E23_0" departPos="5.10" departSpeed="0.00" departDelay="0.00" arrival="993.00" arrivalLane="E11_0" arrivalPos="92.00" arrivalSpeed="5.26" duration="93.00" routeLength="874.69" waitingTime="0.00" waitingCount="0" stopTime="0.00" timeLoss="24.25" rerouteNo="0" devices="tripinfo_f_4.2" vType="DEFAULT_VEHTYPE" speedFactor="0.93" vaporized=""/>
    <tripinfo id="f_10.2" depart="900.00" departLane="E19_0" departPos="5.10" departSpeed="0.00" departDelay="0.00" arrival="999.00" arrivalLane="E22_0" arrivalPos="92.00" arrivalSpeed="13.19" duration="99.00" routeLength="870.69" waitingTime="16.00" waitingCount="1" stopTime="0.00" timeLoss="34.78" rerouteNo="0" devices="tripinfo_f_10.2" vType="DEFAULT_VEHTYPE" speedFactor="1.01" vaporized=""/>
    <tripinfo id="f_7.2" depart="900.00" departLane="E1_0" departPos="5.10" departSpeed="0.00" departDelay="0.00" arrival="1027.00" arrivalLane="E17_0" arrivalPos="89.60" arrivalSpeed="14.89" duration="127.00" routeLength="866.35" waitingTime="32.00" waitingCount="3" stopTime="0.00" timeLoss="70.40" rerouteNo="0" devices="tripinfo_f_7.2" vType="DEFAULT_VEHTYPE" speedFactor="1.15" vaporized=""/>
    <tripinfo id="f_0.3" depart="1200.00" departLane="E21_0" departPos="5.10" departSpeed="0.00" departDelay="0.00" arrival="1292.00" arrivalLane="E21_0" arrivalPos="89.60" arrivalSpeed="15.97" duration="92.00" routeLength="866.12" waitingTime="8.00" waitingCount="2" stopTime="0.00" timeLoss="37.38" rerouteNo="0" devices="tripinfo_f_0.3" vType="DEFAULT_VEHTYPE" speedFactor="1.17" vaporized=""/>
    <tripinfo id="f_9.3" depart="1200.00" departLane="E20_0" departPos="5.10" departSpeed="0.00" departDelay="0.00" arrival="1294.00" arrivalLane="E8_0" arrivalPos="92.00" arrivalSpeed="14.79" duration="94.00" routeLength="872.75" waitingTime="5.00" waitingCount="2" stopTime="0.00" timeLoss="33.00" rerouteNo="0" devices="tripinfo_f_9.3" vType="DEFAULT_VEHTYPE" speedFactor="1.10" vaporized=""/>
    <tripinfo id="f_3.3" depart="1203.00" departLane="E21_0" departPos="5.10" departSpeed="0.00" departDelay="3.00" arrival="1298.00" arrivalLane="E9_0" arrivalPos="85.60" arrivalSpeed="13.07" duration="95.00" routeLength="857.78" waitingTime="4.00" waitingCount="1" stopTime="0.00" timeLoss="31.34" rerouteNo="0" devices="tripinfo_f_3.3" vType="DEFAULT_VEHTYPE" speedFactor="1.02" vaporized=""/>
    <tripinfo id="f_1.3" depart="1200.00" departLane="E6_0" departPos="5.10" departSpeed="0.00" departDelay="0.00" arrival="1314.00" arrivalLane="E22_0" arrivalPos="92.00" arrivalSpeed="13.18" duration="114.00" routeLength="863.95" waitingTime="18.00" waitingCount="3" stopTime="0.00" timeLoss="48.67" rerouteNo="0" devices="tripinfo_f_1.3" vType="DEFAULT_VEHTYPE" speedFactor="0.99" vaporized=""/>
    <tripinfo id="f_8.3" depart="1200.00" departLane="E7_0" departPos="5.10" departSpeed="0.00" departDelay="0.00" arrival="1319.00" arrivalLane="E23_0" arrivalPos="89.60" arrivalSpeed="15.87" duration="119.00" routeLength="863.67" waitingTime="27.00" waitingCount="3" stopTime="0.00" timeLoss="65.15" rerouteNo="0" devices="tripinfo_f_8.3" vType="DEFAULT_VEHTYPE" speedFactor="1.18" vaporized=""/>
    <tripinfo id="f_6.3" depart="1200.00" departLane="E4_0" departPos="5.10" departSpeed="0.00" departDelay="0.00" arrival="1330.00" arrivalLane="E20_0" arrivalPos="89.60" arrivalSpeed="13.27" duration="130.00" routeLength="864.57" waitingTime="31.00" waitingCount="3" stopTime="0.00" timeLoss="63.34" rerouteNo="0" devices="tripinfo_f_6.3" vType="DEFAULT_VEHTYPE" speedFactor="0.97" vaporized=""/>
    <tripinfo id="f_10.3" depart="1350.00" departLane="E19_0" departPos="5.10" departSpeed="0.00" departDelay="0.00" arrival="1430.00" arrivalLane="E22_0" arrivalPos="92.00" arrivalSpeed="13.55" duration="80.00" routeLength="870.69" waitingTime="0.00" waitingCount="0" stopTime="0.00" timeLoss="17.96" rerouteNo="0" devices="tripinfo_f_10.3" vType="DEFAULT_VEHTYPE" speedFactor="1.04" vaporized=""/>
    <tripinfo id="f_5.3" depart="1350.00" departLane="E22_0" departPos="5.10" departSpeed="0.00" departDelay="0.00" arrival="1432.00" arrivalLane="E6_0" arrivalPos="89.60" arrivalSpeed="12.29" duration="82.00" routeLength="872.24" waitingTime="0.00" waitingCount="0" stopTime="0.00" timeLoss="15.32" rerouteNo="0" devices="tripinfo_f_5.3" vType="DEFAULT_VEHTYPE" speedFactor="0.96" vaporized=""/>
    <tripinfo id="f_2.3" depart="1350.00" departLane="E7_0" departPos="5.10" departSpeed="0.00" departDelay="0.00" arrival="1447.00" arrivalLane="E23_0" arrivalPos="89.60" arrivalSpeed="12.44" duration="97.00" routeLength="863.67" waitingTime="5.00" waitingCount="1" stopTime="0.00" timeLoss="26.22" rerouteNo="0" devices="tripinfo_f_2.3" vType="DEFAULT_VEHTYPE" speedFactor="0.90" vaporized=""/>
    <tripinfo id="f_4.3" depart="1350.00" departLane="E23_0" departPos="5.10" departSpeed="0.00" departDelay="0.00" arrival="1466.00" arrivalLane="E11_0" arrivalPos="92.00" arrivalSpeed="13.97" duration="116.00" routeLength="874.69" waitingTime="16.00" waitingCount="3" stopTime="0.00" timeLoss="53.63" rerouteNo="0" devices="tripinfo_f_4.3" vType="DEFAULT_VEHTYPE" speedFactor="1.03" vaporized=""/>
    <tripinfo id="f_7.3" depart="1350.00" departLane="E1_0" departPos="5.10" departSpeed="0.00" departDelay="0.00" arrival="1469.00" arrivalLane="E17_0" arrivalPos="89.60" arrivalSpeed="14.01" duration="119.00" routeLength="866.35" waitingTime="24.00" waitingCount="3" stopTime="0.00" timeLoss="60.29" rerouteNo="0" devices="tripinfo_f_7.3" vType="DEFAULT_VEHTYPE" speedFactor="1.09" vaporized=""/>
    <tripinfo id="f_1.4" depart="1600.00" departLane="E6_0" departPos="5.10" departSpeed="0.00" departDelay="0.00" arrival="1688.00" arrivalLane="E22_0" arrivalPos="92.00" arrivalSpeed="14.31" duration="88.00" routeLength="863.95" waitingTime="5.00" waitingCount="1" stopTime="0.00" timeLoss="27.42" rerouteNo="0" devices="tripinfo_f_1.4" vType="DEFAULT_VEHTYPE" speedFactor="1.09" vaporized=""/>
    <tripinfo id="f_0.4" depart="1600.00" departLane="E21_0" departPos="5.10" departSpeed="0.00" departDelay="0.00" arrival="1690.00" arrivalLane="E21_0" arrivalPos="89.60" arrivalSpeed="13.48" duration="90.00" routeLength="866.12" waitingTime="2.00" waitingCount="1" stopTime="0.00" timeLoss="27.27" rerouteNo="0" devices="tripinfo_f_0.4" vType="DEFAULT_VEHTYPE" speedFactor="1.04" vaporized=""/>
    <tripinfo id="f_8.4" depart="1600.00" departLane="E7_0" departPos="5.10" departSpeed="0.00" departDelay="0.00" arrival="1696.00" arrivalLane="E23_0" arrivalPos="89.60" arrivalSpeed="11.00" duration="96.00" routeLength="863.67" waitingTime="1.00" waitingCount="1" stopTime="0.00" timeLoss="22.09" rerouteNo="0" devices="tripinfo_f_8.4" vType="DEFAULT_VEHTYPE" speedFactor="0.88" vaporized=""/>
    <tripinfo id="f_3.4" depart="1603.00" departLane="E21_0" departPos="5.10" departSpeed="0.00" departDelay="3.00" arrival="1704.00" arrivalLane="E9_0" arrivalPos="85.60" arrivalSpeed="13.72" duration="101.00" routeLength="857.78" waitingTime="4.00" waitingCount="2" stopTime="0.00" timeLoss="35.08" rerouteNo="0" devices="tripinfo_f_3.4" vType="DEFAULT_VEHTYPE" speedFactor="1.00" vaporized=""/>
    <tripinfo id="f_9.4" depart="1600.00" departLane="E20_0" departPos="5.10" departSpeed="0.00" departDelay="0.00" arrival="1707.00" arrivalLane="E8_0" arrivalPos="92.00" arrivalSpeed="11.01" duration="107.00" routeLength="872.75" waitingTime="5.00" waitingCount="1" stopTime="0.00" timeLoss="29.24" rerouteNo="0" devices="tripinfo_f_9.4" vType="DEFAULT_VEHTYPE" speedFactor="0.85" vaporized=""/>
    <tripinfo id="f_6.4" depart="1600.00" departLane="E4_0" departPos="5.10" departSpeed="0.00" departDelay="0.00" arrival="1738.00" arrivalLane="E20_0" arrivalPos="89.60" arrivalSpeed="12.14" duration="138.00" routeLength="864.57" waitingTime="39.00" waitingCount="3" stopTime="0.00" timeLoss="66.10" rerouteNo="0" devices="tripinfo_f_6.4" vType="DEFAULT_VEHTYPE" speedFactor="0.90" vaporized=""/>
    <tripinfo id="f_4.4" depart="1800.00" departLane="E23_0" departPos="5.10" departSpeed="0.00" departDelay="0.00" arrival="1893.00" arrivalLane="E11_0" arrivalPos="92.00" arrivalSpeed="14.99" duration="93.00" routeLength="874.69" waitingTime="3.00" waitingCount="2" stopTime="0.00" timeLoss="37.78" rerouteNo="0" devices="tripinfo_f_4.4" vType="DEFAULT_VEHTYPE" speedFactor="1.17" vaporized=""/>
    <tripinfo id="f_10.4" depart="1800.00" departLane="E19_0" departPos="5.10" departSpeed="0.00" departDelay="0.00" arrival="1899.00" arrivalLane="E22_0" arrivalPos="92.00" arrivalSpeed="13.86" duration="99.00" routeLength="870.69" waitingTime="9.00" waitingCount="2" stopTime="0.00" timeLoss="34.07" rerouteNo="0" devices="tripinfo_f_10.4" vType="DEFAULT_VEHTYPE" speedFactor="1.00" vaporized=""/>
    <tripinfo id="f_5.4" depart="1800.00" departLane="E22_0" departPos="5.10" departSpeed="0.00" departDelay="0.00" arrival="1901.00" arrivalLane="E6_0" arrivalPos="89.60" arrivalSpeed="14.10" duration="101.00" routeLength="872.24" waitingTime="11.00" waitingCount="2" stopTime="0.00" timeLoss="37.11" rerouteNo="0" devices="tripinfo_f_5.4" vType="DEFAULT_VEHTYPE" speedFactor="1.02" vaporized=""/>
    <tripinfo id="f_2.4" depart="1800.00" departLane="E7_0" departPos="5.10" departSpeed="0.00" departDelay="0.00" arrival="1909.00" arrivalLane="E23_0" arrivalPos="89.60" arrivalSpeed="11.08" duration="109.00" routeLength="863.67" waitingTime="13.00" waitingCount="1" stopTime="0.00" timeLoss="33.61" rerouteNo="0" devices="tripinfo_f_2.4" vType="DEFAULT_VEHTYPE" speedFactor="0.85" vaporized=""/>
    <tripinfo id="f_7.4" depart="1800.00" departLane="E1_0" departPos="5.10" departSpeed="0.00" departDelay="0.00" arrival="1910.00" arrivalLane="E17_0" arrivalPos="89.60" arrivalSpeed="14.76" duration="110.00" routeLength="866.35" waitingTime="12.00" waitingCount="3" stopTime="0.00" timeLoss="50.08" rerouteNo="0" devices="tripinfo_f_7.4" vType="DEFAULT_VEHTYPE" speedFactor="1.10" vaporized=""/>
    <tripinfo id="f_0.5" depart="2000.00" departLane="E21_0" departPos="5.10" departSpeed="0.00" departDelay="0.00" arrival="2090.00" arrivalLane="E21_0" arrivalPos="89.60" arrivalSpeed="13.06" duration="90.00" routeLength="866.12" waitingTime="2.00" waitingCount="1" stopTime="0.00" timeLoss="24.85" rerouteNo="0" devices="tripinfo_f_0.5" vType="DEFAULT_VEHTYPE" speedFactor="1.00" vaporized=""/>
    <tripinfo id="f_8.5" depart="2000.00" departLane="E7_0" departPos="5.10" departSpeed="0.00" departDelay="0.00" arrival="2093.00" arrivalLane="E23_0" arrivalPos="89.60" arrivalSpeed="12.56" duration="93.00" routeLength="863.67" waitingTime="5.00" waitingCount="1" stopTime="0.00" timeLoss="27.20" rerouteNo="0" devices="tripinfo_f_8.5" vType="DEFAULT_VEHTYPE" speedFactor="0.97" vaporized=""/>
    <tripinfo id="f_1.5" depart="2000.00" departLane="E6_0" departPos="5.10" departSpeed="0.00" departDelay="0.00" arrival="2097.00" arrivalLane="E22_0" arrivalPos="92.00" arrivalSpeed="11.21" duration="97.00" routeLength="863.95" waitingTime="5.00" waitingCount="1" stopTime="0.00" timeLoss="23.67" rerouteNo="0" devices="tripinfo_f_1.5" vType="DEFAULT_VEHTYPE" speedFactor="0.90" vaporized=""/>
    <tripinfo id="f_9.5" depart="2000.00" departLane="E20_0" departPos="5.10" departSpeed="0.00" departDelay="0.00" arrival="2101.00" arrivalLane="E8_0" arrivalPos="92.00" arrivalSpeed="13.81" duration="101.00" routeLength="872.75" waitingTime="6.00" waitingCount="2" stopTime="0.00" timeLoss="39.52" rerouteNo="0" devices="tripinfo_f_9.5" vType="DEFAULT_VEHTYPE" speedFactor="1.08" vaporized=""/>
    <tripinfo id="f_3.5" depart="2003.00" departLane="E21_0" departPos="5.10" departSpeed="0.00" departDelay="3.00" arrival="2107.00" arrivalLane="E9_0" arrivalPos="85.60" arrivalSpeed="15.61" duration="104.00" routeLength="857.78" waitingTime="17.00" waitingCount="2" stopTime="0.00" timeLoss="46.75" rerouteNo="0" devices="tripinfo_f_3.5" vType="DEFAULT_VEHTYPE" speedFactor="1.14" vaporized=""/>
    <tripinfo id="f_6.5" depart="2000.00" departLane="E4_0" departPos="5.10" departSpeed="0.00" departDelay="0.00" arrival="2111.00" arrivalLane="E20_0" arrivalPos="89.60" arrivalSpeed="13.73" duration="111.00" routeLength="864.57" waitingTime="13.00" waitingCount="4" stopTime="0.00" timeLoss="47.90" rerouteNo="0" devices="tripinfo_f_6.5" vType="DEFAULT_VEHTYPE" speedFactor="1.02" vaporized=""/>
    <tripinfo id="f_2.5" depart="2250.00" departLane="E7_0" departPos="5.10" departSpeed="0.00" departDelay="0.00" arrival="2329.00" arrivalLane="E23_0" arrivalPos="89.60" arrivalSpeed="15.38" duration="79.00" routeLength="863.67" waitingTime="0.00" waitingCount="0" stopTime="0.00" timeLoss="22.31" rerouteNo="0" devices="tripinfo_f_2.5" vType="DEFAULT_VEHTYPE" speedFactor="1.12" vaporized=""/>
    <tripinfo id="f_5.5" depart="2250.00" departLane="E22_0" departPos="5.10" departSpeed="0.00" departDelay="0.00" arrival="2333.00" arrivalLane="E6_0" arrivalPos="89.60" arrivalSpeed="12.64" duration="83.00" routeLength="872.24" waitingTime="0.00" waitingCount="0" stopTime="0.00" timeLoss="18.13" rerouteNo="0" devices="tripinfo_f_5.5" vType="DEFAULT_VEHTYPE" speedFactor="0.99" vaporized=""/>
    <tripinfo id="f_4.5" depart="2250.00" departLane="E23_0" departPos="5.10" departSpeed="0.00" departDelay="0.00" arrival="2346.00" arrivalLane="E11_0" arrivalPos="92.00" arrivalSpeed="13.20" duration="96.00" routeLength="874.69" waitingTime="11.00" waitingCount="1" stopTime="0.00" timeLoss="32.68" rerouteNo="0" devices="tripinfo_f_4.5" vType="DEFAULT_VEHTYPE" speedFactor="1.02" vaporized=""/>
    <tripinfo id="f_7.5" depart="2250.00" departLane="E1_0" departPos="5.10" departSpeed="0.00" departDelay="0.00" arrival="2356.00" arrivalLane="E17_0" arrivalPos="89.60" arrivalSpeed="12.48" duration="106.00" routeLength="866.35" waitingTime="8.00" waitingCount="2" stopTime="0.00" timeLoss="36.17" rerouteNo="0" devices="tripinfo_f_7.5" vType="DEFAULT_VEHTYPE" speedFactor="0.94" vaporized=""/>
    <tripinfo id="f_10.5" depart="2250.00" departLane="E19_0" departPos="5.10" departSpeed="0.00" departDelay="0.00" arrival="2359.00" arrivalLane="E22_0" arrivalPos="92.00" arrivalSpeed="11.28" duration="109.00" routeLength="870.69" waitingTime="16.00" waitingCount="2" stopTime="0.00" timeLoss="37.20" rerouteNo="0" devices="tripinfo_f_10.5" vType="DEFAULT_VEHTYPE" speedFactor="0.88" vaporized=""/>
    <tripinfo id="f_6.6" depart="2400.00" departLane="E4_0" departPos="5.10" departSpeed="0.00" departDelay="0.00" arrival="2490.00" arrivalLane="E20_0" arrivalPos="89.60" arrivalSpeed="5.50" duration="90.00" routeLength="864.57" waitingTime="0.00" waitingCount="0" stopTime="0.00" timeLoss="26.73" rerouteNo="0" devices="tripinfo_f_6.6" vType="DEFAULT_VEHTYPE" speedFactor="1.02" vaporized=""/>
    <tripinfo id="f_0.6" depart="2400.00" departLane="E21_0" departPos="5.10" departSpeed="0.00" departDelay="0.00" arrival="2493.00" arrivalLane="E21_0" arrivalPos="89.60" arrivalSpeed="11.67" duration="93.00" routeLength="866.12" waitingTime="0.00" waitingCount="0" stopTime="0.00" timeLoss="21.97" rerouteNo="0" devices="tripinfo_f_0.6" vType="DEFAULT_VEHTYPE" speedFactor="0.91" vaporized=""/>
    <tripinfo id="f_9.6" depart="2400.00" departLane="E20_0" departPos="5.10" departSpeed="0.00" departDelay="0.00" arrival="2496.00" arrivalLane="E8_0" arrivalPos="92.00" arrivalSpeed="12.52" duration="96.00" routeLength="872.75" waitingTime="3.00" waitingCount="1" stopTime="0.00" timeLoss="28.62" rerouteNo="0" devices="tripinfo_f_9.6" vType="DEFAULT_VEHTYPE" speedFactor="0.97" vaporized=""/>
    <tripinfo id="f_8.6" depart="2400.00" departLane="E7_0" departPos="5.10" departSpeed="0.00" departDelay="0.00" arrival="2503.00" arrivalLane="E23_0" arrivalPos="89.60" arrivalSpeed="12.91" duration="103.00" routeLength="863.67" waitingTime="14.00" waitingCount="2" stopTime="0.00" timeLoss="40.68" rerouteNo="0" devices="tripinfo_f_8.6" vType="DEFAULT_VEHTYPE" speedFactor="1.02" vaporized=""/>
    <tripinfo id="f_1.6" depart="2400.00" departLane="E6_0" departPos="5.10" departSpeed="0.00" departDelay="0.00" arrival="2506.00" arrivalLane="E22_0" arrivalPos="92.00" arrivalSpeed="12.37" duration="106.00" routeLength="863.95" waitingTime="12.00" waitingCount="1" stopTime="0.00" timeLoss="34.87" rerouteNo="0" devices="tripinfo_f_1.6" vType="DEFAULT_VEHTYPE" speedFactor="0.91" vaporized=""/>
    <tripinfo id="f_3.6" depart="2403.00" departLane="E21_0" departPos="5.10" departSpeed="0.00" departDelay="3.00" arrival="2514.00" arrivalLane="E9_0" arrivalPos="85.60" arrivalSpeed="14.31" duration="111.00" routeLength="857.78" waitingTime="14.00" waitingCount="2" stopTime="0.00" timeLoss="48.46" rerouteNo="0" devices="tripinfo_f_3.6" vType="DEFAULT_VEHTYPE" speedFactor="1.04" vaporized=""/>
    <tripinfo id="f_2.6" depart="2700.00" departLane="E7_0" departPos="5.10" departSpeed="0.00" departDelay="0.00" arrival="2787.00" arrivalLane="E23_0" arrivalPos="89.60" arrivalSpeed="11.81" duration="87.00" routeLength="863.67" waitingTime="0.00" waitingCount="0" stopTime="0.00" timeLoss="18.99" rerouteNo="0" devices="tripinfo_f_2.6" vType="DEFAULT_VEHTYPE" speedFactor="0.94" vaporized=""/>