<?xml version="1.0" encoding="UTF-8"?>

<!-- generated on 2024-11-11 16:49:37 by Eclipse SUMO sumo Version 1.21.0
<sumoConfiguration xmlns:xsi="http://www.w3.org/2001/XMLSchema-instance" xsi:noNamespaceSchemaLocation="http://sumo.dlr.de/xsd/sumoConfiguration.xsd">

    <input>
        <net-file value="../sumo/test.net.xml"/>
        <route-files value="../sumo/test.rou.xml"/>
        <additional-files value="../sumo/test.add.xml"/>
    </input>

    <output>
        <tripinfo-output value="../sumo/tripinfo.xml"/>
    </output>

</sumoConfiguration>
-->

<tripinfos xmlns:xsi="http://www.w3.org/2001/XMLSchema-instance" xsi:noNamespaceSchemaLocation="http://sumo.dlr.de/xsd/tripinfo_file.xsd">
    <tripinfo id="f_11.0" depart="0.00" departLane="E13_0" departPos="5.10" departSpeed="0.00" departDelay="0.00" arrival="33.00" arrivalLane="E22_0" arrivalPos="92.00" arrivalSpeed="14.61" duration="33.00" routeLength="376.68" waitingTime="0.00" waitingCount="0" stopTime="0.00" timeLoss="7.46" rerouteNo="0" devices="tripinfo_f_11.0" vType="DEFAULT_VEHTYPE" speedFactor="1.08" vaporized=""/>
    <tripinfo id="f_12.0" depart="0.00" departLane="E2_0" departPos="5.10" departSpeed="0.00" departDelay="0.00" arrival="34.00" arrivalLane="E20_1" arrivalPos="80.00" arrivalSpeed="13.88" duration="34.00" routeLength="373.04" waitingTime="0.00" waitingCount="0" stopTime="0.00" timeLoss="6.44" rerouteNo="0" devices="tripinfo_f_12.0" vType="DEFAULT_VEHTYPE" speedFactor="1.03" vaporized=""/>
    <tripinfo id="f_6.0" depart="0.00" departLane="E9_0" departPos="5.10" departSpeed="0.00" departDelay="0.00" arrival="35.00" arrivalLane="E6_0" arrivalPos="83.20" arrivalSpeed="14.70" duration="35.00" routeLength="340.34" waitingTime="0.00" waitingCount="0" stopTime="0.00" timeLoss="11.41" rerouteNo="0" devices="tripinfo_f_6.0" vType="DEFAULT_VEHTYPE" speedFactor="1.12" vaporized=""/>
    <tripinfo id="f_2.0" depart="0.00" departLane="E18_0" departPos="5.10" departSpeed="0.00" departDelay="0.00" arrival="42.00" arrivalLane="E10_0" arrivalPos="92.00" arrivalSpeed="11.69" duration="42.00" routeLength="355.31" waitingTime="0.00" waitingCount="0" stopTime="0.00" timeLoss="10.68" rerouteNo="0" devices="tripinfo_f_2.0" vType="DEFAULT_VEHTYPE" speedFactor="0.86" vaporized=""/>
    <tripinfo id="f_1.0" depart="0.00" departLane="E4_0" departPos="5.10" departSpeed="0.00" departDelay="0.00" arrival="44.00" arrivalLane="E12_1" arrivalPos="92.00" arrivalSpeed="5.48" duration="44.00" routeLength="387.72" waitingTime="0.00" waitingCount="0" stopTime="0.00" timeLoss="12.25" rerouteNo="0" devices="tripinfo_f_1.0" vType="DEFAULT_VEHTYPE" speedFactor="0.94" vaporized=""/>
    <tripinfo id="f_6.1" depart="15.00" departLane="E9_0" departPos="5.10" departSpeed="0.00" departDelay="0.37" arrival="49.00" arrivalLane="E6_0" arrivalPos="83.20" arrivalSpeed="15.16" duration="34.00" routeLength="340.34" waitingTime="0.00" waitingCount="0" stopTime="0.00" timeLoss="11.51" rerouteNo="0" devices="tripinfo_f_6.1" vType="DEFAULT_VEHTYPE" speedFactor="1.18" vaporized=""/>
    <tripinfo id="f_7.0" depart="3.00" departLane="E23_0" departPos="5.10" departSpeed="0.00" departDelay="3.00" arrival="51.00" arrivalLane="E8_1" arrivalPos="92.00" arrivalSpeed="13.19" duration="48.00" routeLength="378.93" waitingTime="7.00" waitingCount="1" stopTime="0.00" timeLoss="18.86" rerouteNo="0" devices="tripinfo_f_7.0" vType="DEFAULT_VEHTYPE" speedFactor="0.99" vaporized=""/>
    <tripinfo id="f_14.0" depart="0.00" departLane="E12_0" departPos="5.10" departSpeed="0.00" departDelay="0.00" arrival="52.00" arrivalLane="E3_0" arrivalPos="83.20" arrivalSpeed="13.59" duration="52.00" routeLength="378.92" waitingTime="7.00" waitingCount="2" stopTime="0.00" timeLoss="24.20" rerouteNo="0" devices="tripinfo_f_14.0" vType="DEFAULT_VEHTYPE" speedFactor="1.05" vaporized=""/>
    <tripinfo id="f_12.1" depart="21.00" departLane="E2_0" departPos="5.10" departSpeed="0.00" departDelay="6.00" arrival="55.00" arrivalLane="E20_1" arrivalPos="80.00" arrivalSpeed="13.21" duration="34.00" routeLength="373.04" waitingTime="0.00" waitingCount="0" stopTime="0.00" timeLoss="6.25" rerouteNo="0" devices="tripinfo_f_12.1" vType="DEFAULT_VEHTYPE" speedFactor="1.01" vaporized=""/>
    <tripinfo id="f_13.0" depart="0.00" departLane="E20_0" departPos="5.10" departSpeed="0.00" departDelay="0.00" arrival="66.00" arrivalLane="E12_1" arrivalPos="92.00" arrivalSpeed="7.10" duration="66.00" routeLength="355.31" waitingTime="14.00" waitingCount="1" stopTime="0.00" timeLoss="33.72" rerouteNo="0" devices="tripinfo_f_13.0" vType="DEFAULT_VEHTYPE" speedFactor="0.83" vaporized=""/>
    <tripinfo id="f_10.0" depart="0.00" departLane="E10_0" departPos="5.10" departSpeed="0.00" departDelay="0.00" arrival="76.00" arrivalLane="E4_1" arrivalPos="79.20" arrivalSpeed="13.45" duration="76.00" routeLength="368.83" waitingTime="35.00" waitingCount="1" stopTime="0.00" timeLoss="48.08" rerouteNo="0" devices="tripinfo_f_10.0" vType="DEFAULT_VEHTYPE" speedFactor="1.01" vaporized=""/>
    <tripinfo id="f_3.0" depart="3.00" departLane="E10_0" departPos="5.10" departSpeed="0.00" departDelay="3.00" arrival="78.00" arrivalLane="E4_1" arrivalPos="79.20" arrivalSpeed="14.36" duration="75.00" routeLength="368.83" waitingTime="33.00" waitingCount="1" stopTime="0.00" timeLoss="48.90" rerouteNo="0" devices="tripinfo_f_3.0" vType="DEFAULT_VEHTYPE" speedFactor="1.09" vaporized=""/>
    <tripinfo id="f_5.0" depart="5.00" departLane="E10_0" departPos="5.10" departSpeed="0.00" departDelay="5.00" arrival="81.00" arrivalLane="E4_1" arrivalPos="79.20" arrivalSpeed="14.49" duration="76.00" routeLength="368.83" waitingTime="34.00" waitingCount="1" stopTime="0.00" timeLoss="49.25" rerouteNo="0" devices="tripinfo_f_5.0" vType="DEFAULT_VEHTYPE" speedFactor="1.05" vaporized=""/>
    <tripinfo id="f_10.1" depart="15.00" departLane="E10_0" departPos="5.10" departSpeed="0.00" departDelay="0.37" arrival="82.00" arrivalLane="E4_0" arrivalPos="79.20" arrivalSpeed="15.53" duration="67.00" routeLength="358.51" waitingTime="26.00" waitingCount="1" stopTime="0.00" timeLoss="43.55" rerouteNo="0" devices="tripinfo_f_10.1" vType="DEFAULT_VEHTYPE" speedFactor="1.16" vaporized=""/>
    <tripinfo id="f_5.3" depart="46.00" departLane="E10_0" departPos="5.10" departSpeed="0.00" departDelay="2.10" arrival="85.00" arrivalLane="E4_1" arrivalPos="79.20" arrivalSpeed="13.20" duration="39.00" routeLength="368.83" waitingTime="0.00" waitingCount="0" stopTime="0.00" timeLoss="10.37" rerouteNo="0" devices="tripinfo_f_5.3" vType="DEFAULT_VEHTYPE" speedFactor="0.99" vaporized=""/>
    <tripinfo id="f_1.1" depart="15.00" departLane="E4_0" departPos="5.10" departSpeed="0.00" departDelay="0.37" arrival="89.00" arrivalLane="E12_1" arrivalPos="92.00" arrivalSpeed="4.98" duration="74.00" routeLength="387.72" waitingTime="26.00" waitingCount="2" stopTime="0.00" timeLoss="42.41" rerouteNo="0" devices="tripinfo_f_1.1" vType="DEFAULT_VEHTYPE" speedFactor="0.94" vaporized=""/>
    <tripinfo id="f_2.2" depart="29.00" departLane="E18_0" departPos="5.10" departSpeed="0.00" departDelay="0.43" arrival="96.00" arrivalLane="E10_1" arrivalPos="92.00" arrivalSpeed="13.24" duration="67.00" routeLength="365.63" waitingTime="27.00" waitingCount="1" stopTime="0.00" timeLoss="38.27" rerouteNo="0" devices="tripinfo_f_2.2" vType="DEFAULT_VEHTYPE" speedFactor="0.97" vaporized=""/>
    <tripinfo id="f_2.1" depart="15.00" departLane="E18_0" departPos="5.10" departSpeed="0.00" departDelay="0.72" arrival="98.00" arrivalLane="E10_0" arrivalPos="92.00" arrivalSpeed="11.61" duration="83.00" routeLength="355.31" waitingTime="41.00" waitingCount="1" stopTime="0.00" timeLoss="53.87" rerouteNo="0" devices="tripinfo_f_2.1" vType="DEFAULT_VEHTYPE" speedFactor="0.92" vaporized=""/>
    <tripinfo id="f_4.0" depart="0.00" departLane="E23_0" departPos="5.10" departSpeed="0.00" departDelay="0.00" arrival="100.00" arrivalLane="E5_0" arrivalPos="79.20" arrivalSpeed="6.81" duration="100.00" routeLength="366.33" waitingTime="51.00" waitingCount="3" stopTime="0.00" timeLoss="73.39" rerouteNo="0" devices="tripinfo_f_4.0" vType="DEFAULT_VEHTYPE" speedFactor="1.03" vaporized=""/>
    <tripinfo id="f_11.1" depart="15.00" departLane="E13_0" departPos="5.10" departSpeed="0.00" departDelay="0.72" arrival="100.00" arrivalLane="E22_0" arrivalPos="92.00" arrivalSpeed="13.90" duration="85.00" routeLength="376.68" waitingTime="39.00" waitingCount="2" stopTime="0.00" timeLoss="57.02" rerouteNo="0" devices="tripinfo_f_11.1" vType="DEFAULT_VEHTYPE" speedFactor="1.02" vaporized=""/>
    <tripinfo id="f_14.1" depart="15.00" departLane="E12_0" departPos="5.10" departSpeed="0.00" departDelay="0.37" arrival="100.00" arrivalLane="E3_0" arrivalPos="83.20" arrivalSpeed="12.03" duration="85.00" routeLength="378.92" waitingTime="39.00" waitingCount="2" stopTime="0.00" timeLoss="52.70" rerouteNo="0" devices="tripinfo_f_14.1" vType="DEFAULT_VEHTYPE" speedFactor="0.89" vaporized=""/>
    <tripinfo id="f_4.1" depart="20.00" departLane="E23_0" departPos="5.10" departSpeed="0.00" departDelay="5.37" arrival="100.00" arrivalLane="E5_1" arrivalPos="79.20" arrivalSpeed="6.26" duration="80.00" routeLength="366.33" waitingTime="38.00" waitingCount="2" stopTime="0.00" timeLoss="55.84" rerouteNo="0" devices="tripinfo_f_4.1" vType="DEFAULT_VEHTYPE" speedFactor="1.13" vaporized=""/>
    <tripinfo id="f_2.3" depart="43.00" departLane="E18_0" departPos="5.10" departSpeed="0.00" departDelay="0.15" arrival="100.00" arrivalLane="E10_0" arrivalPos="92.00" arrivalSpeed="15.10" duration="57.00" routeLength="355.31" waitingTime="15.00" waitingCount="1" stopTime="0.00" timeLoss="31.57" rerouteNo="0" devices="tripinfo_f_2.3" vType="DEFAULT_VEHTYPE" speedFactor="1.10" vaporized=""/>
    <tripinfo id="f_3.2" depart="29.00" departLane="E10_0" departPos="5.10" departSpeed="0.00" departDelay="0.43" arrival="102.00" arrivalLane="E4_0" arrivalPos="79.20" arrivalSpeed="16.06" duration="73.00" routeLength="358.51" waitingTime="25.00" waitingCount="2" stopTime="0.00" timeLoss="49.94" rerouteNo="0" devices="tripinfo_f_3.2" vType="DEFAULT_VEHTYPE" speedFactor="1.18" vaporized=""/>
    <tripinfo id="f_2.4" depart="58.00" departLane="E18_0" departPos="5.10" departSpeed="0.00" departDelay="0.86" arrival="102.00" arrivalLane="E10_0" arrivalPos="92.00" arrivalSpeed="5.66" duration="44.00" routeLength="365.63" waitingTime="0.00" waitingCount="0" stopTime="0.00" timeLoss="17.01" rerouteNo="0" devices="tripinfo_f_2.4" vType="DEFAULT_VEHTYPE" speedFactor="1.02" vaporized=""/>
    <tripinfo id="f_3.1" depart="16.00" departLane="E10_0" departPos="5.10" departSpeed="0.00" departDelay="1.72" arrival="104.00" arrivalLane="E4_1" arrivalPos="79.20" arrivalSpeed="12.84" duration="88.00" routeLength="368.83" waitingTime="36.00" waitingCount="3" stopTime="0.00" timeLoss="58.20" rerouteNo="0" devices="tripinfo_f_3.1" vType="DEFAULT_VEHTYPE" speedFactor="0.95" vaporized=""/>
    <tripinfo id="f_15.0" depart="0.00" departLane="E15_0" departPos="5.10" departSpeed="0.00" departDelay="0.00" arrival="105.00" arrivalLane="E23_0" arrivalPos="83.20" arrivalSpeed="8.24" duration="105.00" routeLength="358.01" waitingTime="45.00" waitingCount="3" stopTime="0.00" timeLoss="74.77" rerouteNo="0" devices="tripinfo_f_15.0" vType="DEFAULT_VEHTYPE" speedFactor="0.89" vaporized=""/>
    <tripinfo id="f_9.0" depart="3.00" departLane="E15_0" departPos="5.10" departSpeed="0.00" departDelay="3.00" arrival="105.00" arrivalLane="E23_1" arrivalPos="83.20" arrivalSpeed="7.57" duration="102.00" routeLength="368.29" waitingTime="41.00" waitingCount="3" stopTime="0.00" timeLoss="70.68" rerouteNo="0" devices="tripinfo_f_9.0" vType="DEFAULT_VEHTYPE" speedFactor="0.88" vaporized=""/>
    <tripinfo id="f_11.2" depart="29.00" departLane="E13_0" departPos="5.10" departSpeed="0.00" departDelay="0.43" arrival="105.00" arrivalLane="E22_0" arrivalPos="92.00" arrivalSpeed="13.52" duration="76.00" routeLength="376.68" waitingTime="28.00" waitingCount="1" stopTime="0.00" timeLoss="47.46" rerouteNo="0" devices="tripinfo_f_11.2" vType="DEFAULT_VEHTYPE" speedFactor="0.99" vaporized=""/>
    <tripinfo id="f_5.2" depart="35.00" departLane="E10_0" departPos="5.10" departSpeed="0.00" departDelay="5.73" arrival="106.00" arrivalLane="E4_0" arrivalPos="79.20" arrivalSpeed="11.85" duration="71.00" routeLength="358.51" waitingTime="18.00" waitingCount="2" stopTime="0.00" timeLoss="41.31" rerouteNo="0" devices="tripinfo_f_5.2" vType="DEFAULT_VEHTYPE" speedFactor="0.90" vaporized=""/>
    <tripinfo id="f_15.1" depart="15.00" departLane="E15_0" departPos="5.10" departSpeed="0.00" departDelay="0.37" arrival="107.00" arrivalLane="E23_0" arrivalPos="83.20" arrivalSpeed="11.26" duration="92.00" routeLength="358.01" waitingTime="30.00" waitingCount="2" stopTime="0.00" timeLoss="58.61" rerouteNo="0" devices="tripinfo_f_15.1" vType="DEFAULT_VEHTYPE" speedFactor="0.83" vaporized=""/>
    <tripinfo id="f_5.1" depart="19.00" departLane="E10_0" departPos="5.10" departSpeed="0.00" departDelay="4.37" arrival="107.00" arrivalLane="E4_1" arrivalPos="79.20" arrivalSpeed="12.73" duration="88.00" routeLength="368.83" waitingTime="35.00" waitingCount="2" stopTime="0.00" timeLoss="57.53" rerouteNo="0" devices="tripinfo_f_5.1" vType="DEFAULT_VEHTYPE" speedFactor="0.93" vaporized=""/>
    <tripinfo id="f_15.2" depart="30.00" departLane="E15_0" departPos="5.10" departSpeed="0.00" departDelay="0.73" arrival="107.00" arrivalLane="E23_1" arrivalPos="83.20" arrivalSpeed="9.17" duration="77.00" routeLength="368.29" waitingTime="21.00" waitingCount="2" stopTime="0.00" timeLoss="51.65" rerouteNo="0" devices="tripinfo_f_15.2" vType="DEFAULT_VEHTYPE" speedFactor="1.09" vaporized=""/>
    <tripinfo id="f_11.3" depart="43.00" departLane="E13_0" departPos="5.10" departSpeed="0.00" departDelay="0.15" arrival="107.00" arrivalLane="E22_0" arrivalPos="92.00" arrivalSpeed="15.09" duration="64.00" routeLength="376.68" waitingTime="19.00" waitingCount="1" stopTime="0.00" timeLoss="39.90" rerouteNo="0" devices="tripinfo_f_11.3" vType="DEFAULT_VEHTYPE" speedFactor="1.17" vaporized=""/>
    <tripinfo id="f_16.0" depart="0.00" departLane="E1_0" departPos="5.10" departSpeed="0.00" departDelay="0.00" arrival="108.00" arrivalLane="E9_0" arrivalPos="79.20" arrivalSpeed="13.00" duration="108.00" routeLength="358.51" waitingTime="63.00" waitingCount="2" stopTime="0.00" timeLoss="78.54" rerouteNo="0" devices="tripinfo_f_16.0" vType="DEFAULT_VEHTYPE" speedFactor="0.94" vaporized=""/>
    <tripinfo id="f_5.4" depart="62.00" departLane="E10_0" departPos="5.10" departSpeed="0.00" departDelay="3.46" arrival="108.00" arrivalLane="E4_0" arrivalPos="79.20" arrivalSpeed="14.22" duration="46.00" routeLength="358.51" waitingTime="2.00" waitingCount="1" stopTime="0.00" timeLoss="19.23" rerouteNo="0" devices="tripinfo_f_5.4" vType="DEFAULT_VEHTYPE" speedFactor="1.03" vaporized=""/>
    <tripinfo id="f_9.1" depart="18.00" departLane="E15_0" departPos="5.10" departSpeed="0.00" departDelay="3.00" arrival="109.00" arrivalLane="E23_1" arrivalPos="83.20" arrivalSpeed="11.35" duration="91.00" routeLength="363.17" waitingTime="30.00" waitingCount="2" stopTime="0.00" timeLoss="67.17" rerouteNo="0" devices="tripinfo_f_9.1" vType="DEFAULT_VEHTYPE" speedFactor="1.17" vaporized=""/>
    <tripinfo id="f_10.2" depart="30.00" departLane="E10_0" departPos="5.10" departSpeed="0.00" departDelay="0.73" arrival="109.00" arrivalLane="E4_1" arrivalPos="79.20" arrivalSpeed="12.51" duration="79.00" routeLength="368.83" waitingTime="24.00" waitingCount="2" stopTime="0.00" timeLoss="49.05" rerouteNo="0" devices="tripinfo_f_10.2" vType="DEFAULT_VEHTYPE" speedFactor="0.96" vaporized=""/>
    <tripinfo id="f_9.2" depart="33.00" departLane="E15_0" departPos="5.10" departSpeed="0.00" departDelay="3.00" arrival="109.00" arrivalLane="E23_0" arrivalPos="83.20" arrivalSpeed="10.74" duration="76.00" routeLength="358.01" waitingTime="19.00" waitingCount="2" stopTime="0.00" timeLoss="44.12" rerouteNo="0" devices="tripinfo_f_9.2" vType="DEFAULT_VEHTYPE" speedFactor="0.85" vaporized=""/>
    <tripinfo id="f_16.1" depart="15.00" departLane="E1_0" departPos="5.10" departSpeed="0.00" departDelay="0.72" arrival="111.00" arrivalLane="E9_0" arrivalPos="79.20" arrivalSpeed="11.53" duration="96.00" routeLength="358.51" waitingTime="46.00" waitingCount="2" stopTime="0.00" timeLoss="64.99" rerouteNo="0" devices="tripinfo_f_16.1" vType="DEFAULT_VEHTYPE" speedFactor="0.87" vaporized=""/>
    <tripinfo id="f_3.3" depart="43.00" departLane="E10_0" departPos="5.10" departSpeed="0.00" departDelay="0.15" arrival="111.00" arrivalLane="E4_1" arrivalPos="79.20" arrivalSpeed="13.90" duration="68.00" routeLength="368.83" waitingTime="15.00" waitingCount="2" stopTime="0.00" timeLoss="39.68" rerouteNo="0" devices="tripinfo_f_3.3" vType="DEFAULT_VEHTYPE" speedFactor="1.00" vaporized=""/>
    <tripinfo id="f_10.3" depart="44.00" departLane="E10_0" departPos="5.10" departSpeed="0.00" departDelay="0.10" arrival="111.00" arrivalLane="E4_0" arrivalPos="79.20" arrivalSpeed="12.96" duration="67.00" routeLength="363.67" waitingTime="8.00" waitingCount="3" stopTime="0.00" timeLoss="38.80" rerouteNo="0" devices="tripinfo_f_10.3" vType="DEFAULT_VEHTYPE" speedFactor="1.02" vaporized=""/>
    <tripinfo id="f_0.1" depart="15.00" departLane="E17_0" departPos="5.10" departSpeed="0.00" departDelay="0.37" arrival="112.00" arrivalLane="E12_1" arrivalPos="92.00" arrivalSpeed="4.70" duration="97.00" routeLength="373.26" waitingTime="43.00" waitingCount="4" stopTime="0.00" timeLoss="67.33" rerouteNo="0" devices="tripinfo_f_0.1" vType="DEFAULT_VEHTYPE" speedFactor="0.94" vaporized=""/>
    <tripinfo id="f_16.2" depart="29.00" departLane="E1_0" departPos="5.10" departSpeed="0.00" departDelay="0.43" arrival="113.00" arrivalLane="E9_0" arrivalPos="79.20" arrivalSpeed="13.72" duration="84.00" routeLength="358.51" waitingTime="30.00" waitingCount="2" stopTime="0.00" timeLoss="56.58" rerouteNo="0" devices="tripinfo_f_16.2" vType="DEFAULT_VEHTYPE" speedFactor="1.02" vaporized=""/>
    <tripinfo id="f_10.4" depart="59.00" departLane="E10_0" departPos="5.10" departSpeed="0.00" departDelay="0.46" arrival="113.00" arrivalLane="E4_0" arrivalPos="79.20" arrivalSpeed="13.17" duration="54.00" routeLength="363.67" waitingTime="4.00" waitingCount="1" stopTime="0.00" timeLoss="25.83" rerouteNo="0" devices="tripinfo_f_10.4" vType="DEFAULT_VEHTYPE" speedFactor="0.98" vaporized=""/>
    <tripinfo id="f_3.4" depart="58.00" departLane="E10_0" departPos="5.10" departSpeed="0.00" departDelay="0.86" arrival="114.00" arrivalLane="E4_1" arrivalPos="79.20" arrivalSpeed="12.69" duration="56.00" routeLength="368.83" waitingTime="3.00" waitingCount="1" stopTime="0.00" timeLoss="26.13" rerouteNo="0" devices="tripinfo_f_3.4" vType="DEFAULT_VEHTYPE" speedFactor="0.97" vaporized=""/>
    <tripinfo id="f_16.3" depart="43.00" departLane="E1_0" departPos="5.10" departSpeed="0.00" departDelay="0.15" arrival="115.00" arrivalLane="E9_0" arrivalPos="79.20" arrivalSpeed="13.76" duration="72.00" routeLength="358.51" waitingTime="19.00" waitingCount="2" stopTime="0.00" timeLoss="45.43" rerouteNo="0" devices="tripinfo_f_16.3" vType="DEFAULT_VEHTYPE" speedFactor="1.02" vaporized=""/>
    <tripinfo id="f_3.5" depart="72.00" departLane="E10_0" departPos="5.10" departSpeed="0.00" departDelay="0.58" arrival="116.00" arrivalLane="E4_1" arrivalPos="79.20" arrivalSpeed="13.18" duration="44.00" routeLength="368.83" waitingTime="0.00" waitingCount="0" stopTime="0.00" timeLoss="15.08" rerouteNo="0" devices="tripinfo_f_3.5" vType="DEFAULT_VEHTYPE" speedFactor="1.01" vaporized=""/>
    <tripinfo id="f_6.2" depart="30.00" departLane="E9_0" departPos="5.10" departSpeed="0.00" departDelay="0.73" arrival="117.00" arrivalLane="E6_0" arrivalPos="83.20" arrivalSpeed="11.01" duration="87.00" routeLength="340.34" waitingTime="42.00" waitingCount="2" stopTime="0.00" timeLoss="56.50" rerouteNo="0" devices="tripinfo_f_6.2" vType="DEFAULT_VEHTYPE" speedFactor="0.88" vaporized=""/>
    <tripinfo id="f_16.4" depart="58.00" departLane="E1_0" departPos="5.10" departSpeed="0.00" departDelay="0.86" arrival="118.00" arrivalLane="E9_0" arrivalPos="79.20" arrivalSpeed="13.57" duration="60.00" routeLength="363.67" waitingTime="12.00" waitingCount="1" stopTime="0.00" timeLoss="32.38" rerouteNo="0" devices="tripinfo_f_16.4" vType="DEFAULT_VEHTYPE" speedFactor="1.02" vaporized=""/>
    <tripinfo id="f_10.5" depart="74.00" departLane="E10_0" departPos="5.10" departSpeed="0.00" departDelay="0.83" arrival="118.00" arrivalLane="E4_0" arrivalPos="79.20" arrivalSpeed="11.10" duration="44.00" routeLength="363.67" waitingTime="0.00" waitingCount="0" stopTime="0.00" timeLoss="10.29" rerouteNo="0" devices="tripinfo_f_10.5" vType="DEFAULT_VEHTYPE" speedFactor="0.83" vaporized=""/>
    <tripinfo id="f_5.5" depart="75.00" departLane="E10_0" departPos="5.10" departSpeed="0.00" departDelay="1.83" arrival="119.00" arrivalLane="E4_1" arrivalPos="79.20" arrivalSpeed="12.19" duration="44.00" routeLength="368.83" waitingTime="0.00" waitingCount="0" stopTime="0.00" timeLoss="12.00" rerouteNo="0" devices="tripinfo_f_5.5" vType="DEFAULT_VEHTYPE" speedFactor="0.91" vaporized=""/>
    <tripinfo id="f_14.3" depart="44.00" departLane="E12_0" departPos="5.10" departSpeed="0.00" departDelay="0.10" arrival="120.00" arrivalLane="E3_1" arrivalPos="83.20" arrivalSpeed="13.95" duration="76.00" routeLength="378.92" waitingTime="26.00" waitingCount="3" stopTime="0.00" timeLoss="49.56" rerouteNo="0" devices="tripinfo_f_14.3" vType="DEFAULT_VEHTYPE" speedFactor="1.08" vaporized=""/>
    <tripinfo id="f_16.5" depart="74.00" departLane="E1_0" departPos="5.10" departSpeed="0.00" departDelay="2.58" arrival="120.00" arrivalLane="E9_0" arrivalPos="79.20" arrivalSpeed="12.81" duration="46.00" routeLength="358.51" waitingTime="1.00" waitingCount="1" stopTime="0.00" timeLoss="19.02" rerouteNo="0" devices="tripinfo_f_16.5" vType="DEFAULT_VEHTYPE" speedFactor="1.00" vaporized=""/>
    <tripinfo id="f_14.2" depart="30.00" departLane="E12_0" departPos="5.10" departSpeed="0.00" departDelay="0.73" arrival="121.00" arrivalLane="E3_0" arrivalPos="83.20" arrivalSpeed="14.45" duration="91.00" routeLength="378.92" waitingTime="37.00" waitingCount="4" stopTime="0.00" timeLoss="62.52" rerouteNo="0" devices="tripinfo_f_14.2" vType="DEFAULT_VEHTYPE" speedFactor="1.04" vaporized=""/>
    <tripinfo id="f_6.3" depart="44.00" departLane="E9_0" departPos="5.10" departSpeed="0.00" departDelay="0.10" arrival="121.00" arrivalLane="E6_1" arrivalPos="83.20" arrivalSpeed="12.30" duration="77.00" routeLength="350.66" waitingTime="31.00" waitingCount="1" stopTime="0.00" timeLoss="48.04" rerouteNo="0" devices="tripinfo_f_6.3" vType="DEFAULT_VEHTYPE" speedFactor="0.94" vaporized=""/>
    <tripinfo id="f_6.4" depart="59.00" departLane="E9_0" departPos="5.10" departSpeed="0.00" departDelay="0.46" arrival="122.00" arrivalLane="E6_0" arrivalPos="83.20" arrivalSpeed="12.71" duration="63.00" routeLength="340.34" waitingTime="18.00" waitingCount="1" stopTime="0.00" timeLoss="35.49" rerouteNo="0" devices="tripinfo_f_6.4" vType="DEFAULT_VEHTYPE" speedFactor="1.00" vaporized=""/>
    <tripinfo id="f_6.5" depart="74.00" departLane="E9_0" departPos="5.10" departSpeed="0.00" departDelay="0.83" arrival="123.00" arrivalLane="E6_1" arrivalPos="83.20" arrivalSpeed="14.38" duration="49.00" routeLength="350.66" waitingTime="4.00" waitingCount="1" stopTime="0.00" timeLoss="24.02" rerouteNo="0" devices="tripinfo_f_6.5" vType="DEFAULT_VEHTYPE" speedFactor="1.12" vaporized=""/>
    <tripinfo id="f_8.0" depart="3.00" departLane="E1_0" departPos="5.10" departSpeed="0.00" departDelay="3.00" arrival="127.00" arrivalLane="E13_1" arrivalPos="92.00" arrivalSpeed="9.68" duration="124.00" routeLength="381.84" waitingTime="68.00" waitingCount="3" stopTime="0.00" timeLoss="93.58" rerouteNo="0" devices="tripinfo_f_8.0" vType="DEFAULT_VEHTYPE" speedFactor="0.93" vaporized=""/>
    <tripinfo id="f_6.6" depart="88.00" departLane="E9_0" departPos="5.10" departSpeed="0.00" departDelay="0.20" arrival="127.00" arrivalLane="E6_0" arrivalPos="83.20" arrivalSpeed="11.91" duration="39.00" routeLength="340.34" waitingTime="0.00" waitingCount="0" stopTime="0.00" timeLoss="10.11" rerouteNo="0" devices="tripinfo_f_6.6" vType="DEFAULT_VEHTYPE" speedFactor="0.92" vaporized=""/>
    <tripinfo id="f_8.1" depart="18.00" departLane="E1_0" departPos="5.10" departSpeed="0.00" departDelay="3.72" arrival="128.00" arrivalLane="E13_0" arrivalPos="92.00" arrivalSpeed="9.09" duration="110.00" routeLength="381.84" waitingTime="49.00" waitingCount="3" stopTime="0.00" timeLoss="81.80" rerouteNo="0" devices="tripinfo_f_8.1" vType="DEFAULT_VEHTYPE" speedFactor="1.01" vaporized=""/>
    <tripinfo id="f_8.2" depart="32.00" departLane="E1_0" departPos="5.10" departSpeed="0.00" departDelay="3.43" arrival="129.00" arrivalLane="E13_1" arrivalPos="92.00" arrivalSpeed="10.42" duration="97.00" routeLength="381.84" waitingTime="39.00" waitingCount="3" stopTime="0.00" timeLoss="70.93" rerouteNo="0" devices="tripinfo_f_8.2" vType="DEFAULT_VEHTYPE" speedFactor="1.10" vaporized=""/>
    <tripinfo id="f_8.3" depart="46.00" departLane="E1_0" departPos="5.10" departSpeed="0.00" departDelay="3.15" arrival="130.00" arrivalLane="E13_0" arrivalPos="92.00" arrivalSpeed="10.59" duration="84.00" routeLength="381.84" waitingTime="20.00" waitingCount="3" stopTime="0.00" timeLoss="55.44" rerouteNo="0" devices="tripinfo_f_8.3" vType="DEFAULT_VEHTYPE" speedFactor="1.00" vaporized=""/>
    <tripinfo id="f_2.5" depart="72.00" departLane="E18_0" departPos="5.10" departSpeed="0.00" departDelay="0.58" arrival="132.00" arrivalLane="E10_0" arrivalPos="92.00" arrivalSpeed="14.03" duration="60.00" routeLength="355.31" waitingTime="19.00" waitingCount="1" stopTime="0.00" timeLoss="33.31" rerouteNo="0" devices="tripinfo_f_2.5" vType="DEFAULT_VEHTYPE" speedFactor="1.04" vaporized=""/>
    <tripinfo id="f_12.2" depart="34.00" departLane="E2_0" departPos="5.10" departSpeed="0.00" departDelay="4.00" arrival="133.00" arrivalLane="E20_1" arrivalPos="80.00" arrivalSpeed="6.79" duration="99.00" routeLength="373.04" waitingTime="53.00" waitingCount="2" stopTime="0.00" timeLoss="73.80" rerouteNo="0" devices="tripinfo_f_12.2" vType="DEFAULT_VEHTYPE" speedFactor="1.09" vaporized=""/>
    <tripinfo id="f_8.4" depart="61.00" departLane="E1_0" departPos="5.10" departSpeed="0.00" departDelay="3.86" arrival="133.00" arrivalLane="E13_1" arrivalPos="92.00" arrivalSpeed="11.96" duration="72.00" routeLength="381.84" waitingTime="15.00" waitingCount="2" stopTime="0.00" timeLoss="41.77" rerouteNo="0" devices="tripinfo_f_8.4" vType="DEFAULT_VEHTYPE" speedFactor="0.94" vaporized=""/>
    <tripinfo id="f_8.5" depart="77.00" departLane="E1_0" departPos="5.10" departSpeed="0.00" departDelay="5.58" arrival="133.00" arrivalLane="E13_0" arrivalPos="92.00" arrivalSpeed="11.92" duration="56.00" routeLength="381.84" waitingTime="7.00" waitingCount="1" stopTime="0.00" timeLoss="28.55" rerouteNo="0" devices="tripinfo_f_8.5" vType="DEFAULT_VEHTYPE" speedFactor="1.02" vaporized=""/>
    <tripinfo id="f_14.5" depart="74.00" departLane="E12_0" departPos="5.10" departSpeed="0.00" departDelay="0.83" arrival="134.00" arrivalLane="E3_1" arrivalPos="83.20" arrivalSpeed="14.69" duration="60.00" routeLength="378.92" waitingTime="16.00" waitingCount="2" stopTime="0.00" timeLoss="32.74" rerouteNo="0" devices="tripinfo_f_14.5" vType="DEFAULT_VEHTYPE" speedFactor="1.09" vaporized=""/>
    <tripinfo id="f_0.0" depart="0.00" departLane="E17_0" departPos="5.10" departSpeed="0.00" departDelay="0.00" arrival="135.00" arrivalLane="E12_0" arrivalPos="92.00" arrivalSpeed="6.59" duration="135.00" routeLength="378.42" waitingTime="77.00" waitingCount="5" stopTime="0.00" timeLoss="107.97" rerouteNo="0" devices="tripinfo_f_0.0" vType="DEFAULT_VEHTYPE" speedFactor="1.06" vaporized=""/>
    <tripinfo id="f_12.3" depart="45.00" departLane="E2_0" departPos="5.10" departSpeed="0.00" departDelay="0.00" arrival="135.00" arrivalLane="E20_1" arrivalPos="80.00" arrivalSpeed="10.63" duration="90.00" routeLength="373.04" waitingTime="39.00" waitingCount="2" stopTime="0.00" timeLoss="58.25" rerouteNo="0" devices="tripinfo_f_12.3" vType="DEFAULT_VEHTYPE" speedFactor="0.88" vaporized=""/>
    <tripinfo id="f_14.4" depart="59.00" departLane="E12_0" departPos="5.10" departSpeed="0.00" departDelay="0.46" arrival="136.00" arrivalLane="E3_0" arrivalPos="83.20" arrivalSpeed="13.51" duration="77.00" routeLength="378.92" waitingTime="32.00" waitingCount="2" stopTime="0.00" timeLoss="47.45" rerouteNo="0" devices="tripinfo_f_14.4" vType="DEFAULT_VEHTYPE" speedFactor="0.98" vaporized=""/>
    <tripinfo id="f_12.4" depart="66.00" departLane="E2_0" departPos="5.10" departSpeed="0.00" departDelay="6.00" arrival="139.00" arrivalLane="E20_1" arrivalPos="80.00" arrivalSpeed="13.27" duration="73.00" routeLength="373.04" waitingTime="20.00" waitingCount="2" stopTime="0.00" timeLoss="44.65" rerouteNo="0" devices="tripinfo_f_12.4" vType="DEFAULT_VEHTYPE" speedFactor="1.02" vaporized=""/>
    <tripinfo id="f_12.5" depart="75.00" departLane="E2_0" departPos="5.10" departSpeed="0.00" departDelay="0.00" arrival="141.00" arrivalLane="E20_1" arrivalPos="80.00" arrivalSpeed="14.79" duration="66.00" routeLength="373.04" waitingTime="13.00" waitingCount="1" stopTime="0.00" timeLoss="40.88" rerouteNo="0" devices="tripinfo_f_12.5" vType="DEFAULT_VEHTYPE" speedFactor="1.10" vaporized=""/>
    <tripinfo id="f_7.1" depart="27.00" departLane="E23_0" departPos="5.10" departSpeed="0.00" departDelay="12.00" arrival="142.00" arrivalLane="E8_1" arrivalPos="92.00" arrivalSpeed="14.98" duration="115.00" routeLength="378.93" waitingTime="64.00" waitingCount="3" stopTime="0.00" timeLoss="89.78" rerouteNo="0" devices="tripinfo_f_7.1" vType="DEFAULT_VEHTYPE" speedFactor="1.15" vaporized=""/>