<?xml version="1.0" encoding="UTF-8"?>

<!-- generated on 2024-11-09 20:04:26 by Eclipse SUMO sumo Version 1.21.0
<sumoConfiguration xmlns:xsi="http://www.w3.org/2001/XMLSchema-instance" xsi:noNamespaceSchemaLocation="http://sumo.dlr.de/xsd/sumoConfiguration.xsd">

    <input>
        <net-file value="../sumo/test.net.xml"/>
        <route-files value="../sumo/test.rou.xml"/>
        <additional-files value="../sumo/test.add.xml"/>
    </input>

    <output>
        <tripinfo-output value="../sumo/tripinfo.xml"/>
    </output>

</sumoConfiguration>
-->

<tripinfos xmlns:xsi="http://www.w3.org/2001/XMLSchema-instance" xsi:noNamespaceSchemaLocation="http://sumo.dlr.de/xsd/tripinfo_file.xsd">
    <tripinfo id="f_6.0" depart="0.00" departLane="E3_0" departPos="5.10" departSpeed="0.00" departDelay="0.00" arrival="149.00" arrivalLane="E6_0" arrivalPos="89.60" arrivalSpeed="13.76" duration="149.00" routeLength="852.93" waitingTime="45.00" waitingCount="3" stopTime="0.00" timeLoss="87.44" rerouteNo="0" devices="tripinfo_f_6.0" vType="DEFAULT_VEHTYPE" speedFactor="1.05" vaporized=""/>
    <tripinfo id="f_6.1" depart="35.00" departLane="E3_0" departPos="5.10" departSpeed="0.00" departDelay="0.05" arrival="152.00" arrivalLane="E6_0" arrivalPos="89.60" arrivalSpeed="12.14" duration="117.00" routeLength="852.93" waitingTime="12.00" waitingCount="2" stopTime="0.00" timeLoss="46.16" rerouteNo="0" devices="tripinfo_f_6.1" vType="DEFAULT_VEHTYPE" speedFactor="0.93" vaporized=""/>
    <tripinfo id="f_2.0" depart="0.00" departLane="E17_0" departPos="5.10" departSpeed="0.00" departDelay="0.00" arrival="154.00" arrivalLane="E20_0" arrivalPos="89.60" arrivalSpeed="12.95" duration="154.00" routeLength="880.86" waitingTime="60.00" waitingCount="2" stopTime="0.00" timeLoss="90.66" rerouteNo="0" devices="tripinfo_f_2.0" vType="DEFAULT_VEHTYPE" speedFactor="1.01" vaporized=""/>
    <tripinfo id="f_7.0" depart="0.00" departLane="E23_0" departPos="5.10" departSpeed="0.00" departDelay="0.00" arrival="161.00" arrivalLane="E14_0" arrivalPos="85.60" arrivalSpeed="6.87" duration="161.00" routeLength="855.38" waitingTime="57.00" waitingCount="3" stopTime="0.00" timeLoss="88.29" rerouteNo="0" devices="tripinfo_f_7.0" vType="DEFAULT_VEHTYPE" speedFactor="0.89" vaporized=""/>
    <tripinfo id="f_5.0" depart="0.00" departLane="E1_0" departPos="5.10" departSpeed="0.00" departDelay="0.00" arrival="163.00" arrivalLane="E20_0" arrivalPos="89.60" arrivalSpeed="11.27" duration="163.00" routeLength="863.95" waitingTime="53.00" waitingCount="4" stopTime="0.00" timeLoss="84.59" rerouteNo="0" devices="tripinfo_f_5.0" vType="DEFAULT_VEHTYPE" speedFactor="0.83" vaporized=""/>
    <tripinfo id="f_5.1" depart="36.00" departLane="E1_0" departPos="5.10" departSpeed="0.00" departDelay="0.36" arrival="165.00" arrivalLane="E20_0" arrivalPos="89.60" arrivalSpeed="15.54" duration="129.00" routeLength="863.95" waitingTime="32.00" waitingCount="2" stopTime="0.00" timeLoss="72.05" rerouteNo="0" devices="tripinfo_f_5.1" vType="DEFAULT_VEHTYPE" speedFactor="1.16" vaporized=""/>
    <tripinfo id="f_7.1" depart="35.00" departLane="E23_0" departPos="5.10" departSpeed="0.00" departDelay="0.39" arrival="167.00" arrivalLane="E14_0" arrivalPos="85.60" arrivalSpeed="10.92" duration="132.00" routeLength="855.38" waitingTime="30.00" waitingCount="3" stopTime="0.00" timeLoss="58.75" rerouteNo="0" devices="tripinfo_f_7.1" vType="DEFAULT_VEHTYPE" speedFactor="0.88" vaporized=""/>
    <tripinfo id="f_5.2" depart="72.00" departLane="E1_0" departPos="5.10" departSpeed="0.00" departDelay="0.71" arrival="179.00" arrivalLane="E20_0" arrivalPos="89.60" arrivalSpeed="11.83" duration="107.00" routeLength="863.95" waitingTime="1.00" waitingCount="1" stopTime="0.00" timeLoss="35.97" rerouteNo="0" devices="tripinfo_f_5.2" vType="DEFAULT_VEHTYPE" speedFactor="0.93" vaporized=""/>
    <tripinfo id="f_8.0" depart="0.00" departLane="E8_0" departPos="5.10" departSpeed="0.00" departDelay="0.00" arrival="247.00" arrivalLane="E17_0" arrivalPos="89.60" arrivalSpeed="12.26" duration="247.00" routeLength="859.95" waitingTime="132.00" waitingCount="5" stopTime="0.00" timeLoss="177.88" rerouteNo="0" devices="tripinfo_f_8.0" vType="DEFAULT_VEHTYPE" speedFactor="0.94" vaporized=""/>
    <tripinfo id="f_6.2" depart="70.00" departLane="E3_0" departPos="5.10" departSpeed="0.00" departDelay="0.10" arrival="270.00" arrivalLane="E6_0" arrivalPos="89.60" arrivalSpeed="11.29" duration="200.00" routeLength="852.93" waitingTime="80.00" waitingCount="4" stopTime="0.00" timeLoss="125.32" rerouteNo="0" devices="tripinfo_f_6.2" vType="DEFAULT_VEHTYPE" speedFactor="0.87" vaporized=""/>
    <tripinfo id="f_5.3" depart="110.00" departLane="E1_0" departPos="5.10" departSpeed="0.00" departDelay="3.07" arrival="282.00" arrivalLane="E20_0" arrivalPos="89.60" arrivalSpeed="12.00" duration="172.00" routeLength="863.95" waitingTime="70.00" waitingCount="3" stopTime="0.00" timeLoss="99.15" rerouteNo="0" devices="tripinfo_f_5.3" vType="DEFAULT_VEHTYPE" speedFactor="0.90" vaporized=""/>
    <tripinfo id="f_5.4" depart="143.00" departLane="E1_0" departPos="5.10" departSpeed="0.00" departDelay="0.43" arrival="285.00" arrivalLane="E20_0" arrivalPos="89.60" arrivalSpeed="11.62" duration="142.00" routeLength="863.95" waitingTime="35.00" waitingCount="3" stopTime="0.00" timeLoss="65.31" rerouteNo="0" devices="tripinfo_f_5.4" vType="DEFAULT_VEHTYPE" speedFactor="0.85" vaporized=""/>
    <tripinfo id="f_5.5" depart="179.00" departLane="E1_0" departPos="5.10" departSpeed="0.00" departDelay="0.79" arrival="298.00" arrivalLane="E20_0" arrivalPos="89.60" arrivalSpeed="12.40" duration="119.00" routeLength="863.95" waitingTime="7.00" waitingCount="1" stopTime="0.00" timeLoss="51.06" rerouteNo="0" devices="tripinfo_f_5.5" vType="DEFAULT_VEHTYPE" speedFactor="0.97" vaporized=""/>
    <tripinfo id="f_5.6" depart="214.00" departLane="E1_0" departPos="5.10" departSpeed="0.00" departDelay="0.14" arrival="345.00" arrivalLane="E20_0" arrivalPos="89.60" arrivalSpeed="13.59" duration="131.00" routeLength="863.95" waitingTime="36.00" waitingCount="1" stopTime="0.00" timeLoss="67.03" rerouteNo="0" devices="tripinfo_f_5.6" vType="DEFAULT_VEHTYPE" speedFactor="1.02" vaporized=""/>
    <tripinfo id="f_6.3" depart="105.00" departLane="E3_0" departPos="5.10" departSpeed="0.00" departDelay="0.15" arrival="391.00" arrivalLane="E6_0" arrivalPos="89.60" arrivalSpeed="9.23" duration="286.00" routeLength="852.93" waitingTime="170.00" waitingCount="4" stopTime="0.00" timeLoss="232.38" rerouteNo="0" devices="tripinfo_f_6.3" vType="DEFAULT_VEHTYPE" speedFactor="1.18" vaporized=""/>
    <tripinfo id="f_5.7" depart="250.00" departLane="E1_0" departPos="5.10" departSpeed="0.00" departDelay="0.50" arrival="401.00" arrivalLane="E20_0" arrivalPos="89.60" arrivalSpeed="14.72" duration="151.00" routeLength="863.95" waitingTime="54.00" waitingCount="3" stopTime="0.00" timeLoss="91.38" rerouteNo="0" devices="tripinfo_f_5.7" vType="DEFAULT_VEHTYPE" speedFactor="1.09" vaporized=""/>
    <tripinfo id="f_5.8" depart="286.00" departLane="E1_0" departPos="5.10" departSpeed="0.00" departDelay="0.86" arrival="403.00" arrivalLane="E20_0" arrivalPos="89.60" arrivalSpeed="13.95" duration="117.00" routeLength="863.95" waitingTime="26.00" waitingCount="1" stopTime="0.00" timeLoss="53.66" rerouteNo="0" devices="tripinfo_f_5.8" vType="DEFAULT_VEHTYPE" speedFactor="1.02" vaporized=""/>
    <tripinfo id="f_5.9" depart="321.00" departLane="E1_0" departPos="5.10" departSpeed="0.00" departDelay="0.21" arrival="405.00" arrivalLane="E20_0" arrivalPos="89.60" arrivalSpeed="14.21" duration="84.00" routeLength="863.95" waitingTime="0.00" waitingCount="0" stopTime="0.00" timeLoss="25.39" rerouteNo="0" devices="tripinfo_f_5.9" vType="DEFAULT_VEHTYPE" speedFactor="1.10" vaporized=""/>
    <tripinfo id="f_2.1" depart="34.00" departLane="E17_0" departPos="5.10" departSpeed="0.00" departDelay="0.04" arrival="426.00" arrivalLane="E20_0" arrivalPos="89.60" arrivalSpeed="13.75" duration="392.00" routeLength="880.86" waitingTime="263.00" waitingCount="8" stopTime="0.00" timeLoss="328.73" rerouteNo="0" devices="tripinfo_f_2.1" vType="DEFAULT_VEHTYPE" speedFactor="1.03" vaporized=""/>
    <tripinfo id="f_5.10" depart="357.00" departLane="E1_0" departPos="5.10" departSpeed="0.00" departDelay="0.57" arrival="466.00" arrivalLane="E20_0" arrivalPos="89.60" arrivalSpeed="13.12" duration="109.00" routeLength="863.95" waitingTime="9.00" waitingCount="1" stopTime="0.00" timeLoss="41.02" rerouteNo="0" devices="tripinfo_f_5.10" vType="DEFAULT_VEHTYPE" speedFactor="0.96" vaporized=""/>
    <tripinfo id="f_5.11" depart="393.00" departLane="E1_0" departPos="5.10" departSpeed="0.00" departDelay="0.93" arrival="521.00" arrivalLane="E20_0" arrivalPos="89.60" arrivalSpeed="14.78" duration="128.00" routeLength="863.95" waitingTime="38.00" waitingCount="1" stopTime="0.00" timeLoss="66.10" rerouteNo="0" devices="tripinfo_f_5.11" vType="DEFAULT_VEHTYPE" speedFactor="1.07" vaporized=""/>
    <tripinfo id="f_2.2" depart="69.00" departLane="E17_0" departPos="5.10" departSpeed="0.00" departDelay="1.08" arrival="537.00" arrivalLane="E20_0" arrivalPos="89.60" arrivalSpeed="12.41" duration="468.00" routeLength="880.86" waitingTime="328.00" waitingCount="9" stopTime="0.00" timeLoss="403.49" rerouteNo="0" devices="tripinfo_f_2.2" vType="DEFAULT_VEHTYPE" speedFactor="1.01" vaporized=""/>
    <tripinfo id="f_6.4" depart="140.00" departLane="E3_0" departPos="5.10" departSpeed="0.00" departDelay="0.20" arrival="563.00" arrivalLane="E6_0" arrivalPos="89.60" arrivalSpeed="11.94" duration="423.00" routeLength="852.93" waitingTime="278.00" waitingCount="9" stopTime="0.00" timeLoss="350.66" rerouteNo="0" devices="tripinfo_f_6.4" vType="DEFAULT_VEHTYPE" speedFactor="0.90" vaporized=""/>
    <tripinfo id="f_5.12" depart="428.00" departLane="E1_0" departPos="5.10" departSpeed="0.00" departDelay="0.28" arrival="586.00" arrivalLane="E20_0" arrivalPos="89.60" arrivalSpeed="13.75" duration="158.00" routeLength="863.95" waitingTime="47.00" waitingCount="3" stopTime="0.00" timeLoss="92.81" rerouteNo="0" devices="tripinfo_f_5.12" vType="DEFAULT_VEHTYPE" speedFactor="1.01" vaporized=""/>
    <tripinfo id="f_5.13" depart="464.00" departLane="E1_0" departPos="5.10" departSpeed="0.00" departDelay="0.64" arrival="588.00" arrivalLane="E20_0" arrivalPos="89.60" arrivalSpeed="12.15" duration="124.00" routeLength="863.95" waitingTime="22.00" waitingCount="2" stopTime="0.00" timeLoss="55.50" rerouteNo="0" devices="tripinfo_f_5.13" vType="DEFAULT_VEHTYPE" speedFactor="0.95" vaporized=""/>
    <tripinfo id="f_5.14" depart="500.00" departLane="E1_0" departPos="5.10" departSpeed="0.00" departDelay="1.00" arrival="590.00" arrivalLane="E20_0" arrivalPos="89.60" arrivalSpeed="13.48" duration="90.00" routeLength="863.95" waitingTime="0.00" waitingCount="0" stopTime="0.00" timeLoss="26.78" rerouteNo="0" devices="tripinfo_f_5.14" vType="DEFAULT_VEHTYPE" speedFactor="1.04" vaporized=""/>
    <tripinfo id="f_2.3" depart="102.00" departLane="E17_0" departPos="5.10" departSpeed="0.00" departDelay="0.11" arrival="690.00" arrivalLane="E20_0" arrivalPos="89.60" arrivalSpeed="15.02" duration="588.00" routeLength="880.86" waitingTime="414.00" waitingCount="11" stopTime="0.00" timeLoss="533.22" rerouteNo="0" devices="tripinfo_f_2.3" vType="DEFAULT_VEHTYPE" speedFactor="1.17" vaporized=""/>
    <tripinfo id="f_6.5" depart="184.00" departLane="E3_0" departPos="5.10" departSpeed="0.00" departDelay="9.25" arrival="699.00" arrivalLane="E6_0" arrivalPos="89.60" arrivalSpeed="5.20" duration="515.00" routeLength="852.93" waitingTime="348.00" waitingCount="10" stopTime="0.00" timeLoss="458.86" rerouteNo="0" devices="tripinfo_f_6.5" vType="DEFAULT_VEHTYPE" speedFactor="1.14" vaporized=""/>
    <tripinfo id="f_5.15" depart="535.00" departLane="E1_0" departPos="5.10" departSpeed="0.00" departDelay="0.36" arrival="704.00" arrivalLane="E20_0" arrivalPos="89.60" arrivalSpeed="13.95" duration="169.00" routeLength="863.95" waitingTime="72.00" waitingCount="4" stopTime="0.00" timeLoss="111.84" rerouteNo="0" devices="tripinfo_f_5.15" vType="DEFAULT_VEHTYPE" speedFactor="1.14" vaporized=""/>
    <tripinfo id="f_5.16" depart="571.00" departLane="E1_0" departPos="5.10" departSpeed="0.00" departDelay="0.71" arrival="714.00" arrivalLane="E20_0" arrivalPos="89.60" arrivalSpeed="11.79" duration="143.00" routeLength="863.95" waitingTime="40.00" waitingCount="4" stopTime="0.00" timeLoss="74.08" rerouteNo="0" devices="tripinfo_f_5.16" vType="DEFAULT_VEHTYPE" speedFactor="0.94" vaporized=""/>
    <tripinfo id="f_5.17" depart="606.00" departLane="E1_0" departPos="5.10" departSpeed="0.00" departDelay="0.07" arrival="716.00" arrivalLane="E20_0" arrivalPos="89.60" arrivalSpeed="14.23" duration="110.00" routeLength="863.95" waitingTime="8.00" waitingCount="3" stopTime="0.00" timeLoss="51.73" rerouteNo="0" devices="tripinfo_f_5.17" vType="DEFAULT_VEHTYPE" speedFactor="1.10" vaporized=""/>
    <tripinfo id="f_3.0" depart="0.00" departLane="E15_0" departPos="5.10" departSpeed="0.00" departDelay="0.00" arrival="728.00" arrivalLane="E15_0" arrivalPos="92.00" arrivalSpeed="13.79" duration="728.00" routeLength="857.32" waitingTime="570.00" waitingCount="8" stopTime="0.00" timeLoss="618.34" rerouteNo="0" devices="tripinfo_f_3.0" vType="DEFAULT_VEHTYPE" speedFactor="1.08" vaporized=""/>
    <tripinfo id="f_7.2" depart="70.00" departLane="E23_0" departPos="5.10" departSpeed="0.00" departDelay="0.77" arrival="793.00" arrivalLane="E14_0" arrivalPos="85.60" arrivalSpeed="5.14" duration="723.00" routeLength="855.38" waitingTime="597.00" waitingCount="8" stopTime="0.00" timeLoss="653.85" rerouteNo="0" devices="tripinfo_f_7.2" vType="DEFAULT_VEHTYPE" speedFactor="0.92" vaporized=""/>
    <tripinfo id="f_1.0" depart="0.00" departLane="E4_0" departPos="5.10" departSpeed="0.00" departDelay="0.00" arrival="796.00" arrivalLane="E5_0" arrivalPos="85.60" arrivalSpeed="12.74" duration="796.00" routeLength="862.63" waitingTime="661.00" waitingCount="10" stopTime="0.00" timeLoss="724.91" rerouteNo="0" devices="tripinfo_f_1.0" vType="DEFAULT_VEHTYPE" speedFactor="0.94" vaporized=""/>
    <tripinfo id="f_6.6" depart="210.00" departLane="E3_0" departPos="5.10" departSpeed="0.00" departDelay="0.29" arrival="803.00" arrivalLane="E6_0" arrivalPos="89.60" arrivalSpeed="12.49" duration="593.00" routeLength="852.93" waitingTime="420.00" waitingCount="11" stopTime="0.00" timeLoss="521.07" rerouteNo="0" devices="tripinfo_f_6.6" vType="DEFAULT_VEHTYPE" speedFactor="0.91" vaporized=""/>
    <tripinfo id="f_5.18" depart="643.00" departLane="E1_0" departPos="5.10" departSpeed="0.00" departDelay="1.43" arrival="883.00" arrivalLane="E20_0" arrivalPos="89.60" arrivalSpeed="11.59" duration="240.00" routeLength="863.95" waitingTime="128.00" waitingCount="4" stopTime="0.00" timeLoss="169.49" rerouteNo="0" devices="tripinfo_f_5.18" vType="DEFAULT_VEHTYPE" speedFactor="0.93" vaporized=""/>
    <tripinfo id="f_5.19" depart="678.00" departLane="E1_0" departPos="5.10" departSpeed="0.00" departDelay="0.78" arrival="899.00" arrivalLane="E20_0" arrivalPos="89.60" arrivalSpeed="11.03" duration="221.00" routeLength="863.95" waitingTime="110.00" waitingCount="3" stopTime="0.00" timeLoss="146.07" rerouteNo="0" devices="tripinfo_f_5.19" vType="DEFAULT_VEHTYPE" speedFactor="0.87" vaporized=""/>
    <tripinfo id="f_1.1" depart="35.00" departLane="E4_0" departPos="5.10" departSpeed="0.00" departDelay="0.05" arrival="905.00" arrivalLane="E5_0" arrivalPos="85.60" arrivalSpeed="7.04" duration="870.00" routeLength="862.63" waitingTime="721.00" waitingCount="12" stopTime="0.00" timeLoss="802.98" rerouteNo="0" devices="tripinfo_f_1.1" vType="DEFAULT_VEHTYPE" speedFactor="0.99" vaporized=""/>
    <tripinfo id="f_2.5" depart="174.00" departLane="E17_0" departPos="5.10" departSpeed="0.00" departDelay="4.19" arrival="927.00" arrivalLane="E20_0" arrivalPos="89.60" arrivalSpeed="14.85" duration="753.00" routeLength="855.88" waitingTime="499.00" waitingCount="4" stopTime="0.00" timeLoss="527.04" rerouteNo="0" devices="tripinfo_f_2.5" vType="DEFAULT_VEHTYPE" speedFactor="1.10" vaporized=""/>
    <tripinfo id="f_5.20" depart="713.00" departLane="E1_0" departPos="5.10" departSpeed="0.00" departDelay="0.14" arrival="945.00" arrivalLane="E20_0" arrivalPos="89.60" arrivalSpeed="14.36" duration="232.00" routeLength="863.95" waitingTime="113.00" waitingCount="6" stopTime="0.00" timeLoss="168.87" rerouteNo="0" devices="tripinfo_f_5.20" vType="DEFAULT_VEHTYPE" speedFactor="1.04" vaporized=""/>
    <tripinfo id="f_5.21" depart="749.00" departLane="E1_0" departPos="5.10" departSpeed="0.00" departDelay="0.50" arrival="947.00" arrivalLane="E20_0" arrivalPos="89.60" arrivalSpeed="14.14" duration="198.00" routeLength="863.95" waitingTime="86.00" waitingCount="3" stopTime="0.00" timeLoss="136.12" rerouteNo="0" devices="tripinfo_f_5.21" vType="DEFAULT_VEHTYPE" speedFactor="1.06" vaporized=""/>
    <tripinfo id="f_8.1" depart="34.00" departLane="E8_0" departPos="5.10" departSpeed="0.00" departDelay="0.36" arrival="949.00" arrivalLane="E17_0" arrivalPos="89.60" arrivalSpeed="3.64" duration="915.00" routeLength="859.95" waitingTime="759.00" waitingCount="12" stopTime="0.00" timeLoss="858.05" rerouteNo="0" devices="tripinfo_f_8.1" vType="DEFAULT_VEHTYPE" speedFactor="1.12" vaporized=""/>
    <tripinfo id="f_5.22" depart="785.00" departLane="E1_0" departPos="5.10" departSpeed="0.00" departDelay="0.85" arrival="992.00" arrivalLane="E20_0" arrivalPos="89.60" arrivalSpeed="10.64" duration="207.00" routeLength="863.95" waitingTime="101.00" waitingCount="4" stopTime="0.00" timeLoss="150.99" rerouteNo="0" devices="tripinfo_f_5.22" vType="DEFAULT_VEHTYPE" speedFactor="1.15" vaporized=""/>
    <tripinfo id="f_4.0" depart="0.00" departLane="E19_0" departPos="5.10" departSpeed="0.00" departDelay="0.00" arrival="993.00" arrivalLane="E15_0" arrivalPos="92.00" arrivalSpeed="5.51" duration="993.00" routeLength="859.95" waitingTime="838.00" waitingCount="12" stopTime="0.00" timeLoss="930.62" rerouteNo="0" devices="tripinfo_f_4.0" vType="DEFAULT_VEHTYPE" speedFactor="1.03" vaporized=""/>
    <tripinfo id="f_4.1" depart="36.00" departLane="E19_0" departPos="5.10" departSpeed="0.00" departDelay="0.36" arrival="996.00" arrivalLane="E15_0" arrivalPos="92.00" arrivalSpeed="8.11" duration="960.00" routeLength="859.95" waitingTime="791.00" waitingCount="12" stopTime="0.00" timeLoss="890.23" rerouteNo="0" devices="tripinfo_f_4.1" vType="DEFAULT_VEHTYPE" speedFactor="0.94" vaporized=""/>
    <tripinfo id="f_7.3" depart="105.00" departLane="E23_0" departPos="5.10" departSpeed="0.00" departDelay="1.16" arrival="1011.00" arrivalLane="E14_0" arrivalPos="85.60" arrivalSpeed="6.91" duration="906.00" routeLength="855.38" waitingTime="761.00" waitingCount="12" stopTime="0.00" timeLoss="841.74" rerouteNo="0" devices="tripinfo_f_7.3" vType="DEFAULT_VEHTYPE" speedFactor="0.99" vaporized=""/>
    <tripinfo id="f_2.4" depart="136.00" departLane="E17_0" departPos="5.10" departSpeed="0.00" departDelay="0.15" arrival="1313.00" arrivalLane="E20_0" arrivalPos="89.60" arrivalSpeed="13.13" duration="1177.00" routeLength="880.86" waitingTime="957.00" waitingCount="20" stopTime="0.00" timeLoss="1114.56" rerouteNo="0" devices="tripinfo_f_2.4" vType="DEFAULT_VEHTYPE" speedFactor="1.04" vaporized=""/>
    <tripinfo id="f_2.6" depart="204.00" departLane="E17_0" departPos="5.10" departSpeed="0.00" departDelay="0.23" arrival="1329.00" arrivalLane="E20_0" arrivalPos="89.60" arrivalSpeed="13.27" duration="1125.00" routeLength="855.88" waitingTime="828.00" waitingCount="10" stopTime="0.00" timeLoss="894.01" rerouteNo="0" devices="tripinfo_f_2.6" vType="DEFAULT_VEHTYPE" speedFactor="0.99" vaporized=""/>
    <tripinfo id="f_3.1" depart="34.00" departLane="E15_0" departPos="5.10" departSpeed="0.00" departDelay="0.36" arrival="1368.00" arrivalLane="E15_0" arrivalPos="92.00" arrivalSpeed="14.10" duration="1334.00" routeLength="857.32" waitingTime="1144.00" waitingCount="13" stopTime="0.00" timeLoss="1228.98" rerouteNo="0" devices="tripinfo_f_3.1" vType="DEFAULT_VEHTYPE" speedFactor="1.05" vaporized=""/>
    <tripinfo id="f_7.4" depart="139.00" departLane="E23_0" departPos="5.10" departSpeed="0.00" departDelay="0.54" arrival="1432.00" arrivalLane="E14_0" arrivalPos="85.60" arrivalSpeed="5.38" duration="1293.00" routeLength="855.38" waitingTime="1133.00" waitingCount="14" stopTime="0.00" timeLoss="1231.21" rerouteNo="0" devices="tripinfo_f_7.4" vType="DEFAULT_VEHTYPE" speedFactor="1.04" vaporized=""/>
    <tripinfo id="f_5.23" depart="820.00" departLane="E1_0" departPos="5.10" departSpeed="0.00" departDelay="0.21" arrival="1623.00" arrivalLane="E20_0" arrivalPos="89.60" arrivalSpeed="12.84" duration="803.00" routeLength="863.95" waitingTime="668.00" waitingCount="8" stopTime="0.00" timeLoss="737.52" rerouteNo="0" devices="tripinfo_f_5.23" vType="DEFAULT_VEHTYPE" speedFactor="0.99" vaporized=""/>
    <tripinfo id="f_4.2" depart="72.00" departLane="E19_0" departPos="5.10" departSpeed="0.00" departDelay="0.71" arrival="1632.00" arrivalLane="E15_0" arrivalPos="92.00" arrivalSpeed="4.97" duration="1560.00" routeLength="859.95" waitingTime="1380.00" waitingCount="16" stopTime="0.00" timeLoss="1502.80" rerouteNo="0" devices="tripinfo_f_4.2" vType="DEFAULT_VEHTYPE" speedFactor="1.13" vaporized=""/>
    <tripinfo id="f_7.5" depart="176.00" departLane="E23_0" departPos="5.10" departSpeed="0.00" departDelay="2.93" arrival="1645.00" arrivalLane="E14_0" arrivalPos="85.60" arrivalSpeed="4.74" duration="1469.00" routeLength="855.38" waitingTime="1293.00" waitingCount="16" stopTime="0.00" timeLoss="1404.64" rerouteNo="0" devices="tripinfo_f_7.5" vType="DEFAULT_VEHTYPE" speedFactor="1.00" vaporized=""/>
    <tripinfo id="f_7.6" depart="208.00" departLane="E23_0" departPos="5.10" departSpeed="0.00" departDelay="0.31" arrival="1650.00" arrivalLane="E14_0" arrivalPos="85.60" arrivalSpeed="9.91" duration="1442.00" routeLength="855.38" waitingTime="1255.00" waitingCount="17" stopTime="0.00" timeLoss="1372.04" rerouteNo="0" devices="tripinfo_f_7.6" vType="DEFAULT_VEHTYPE" speedFactor="0.94" vaporized=""/>
    <tripinfo id="f_9.0" depart="0.00" departLane="E9_0" departPos="5.10" departSpeed="0.00" departDelay="0.00" arrival="1698.00" arrivalLane="E12_0" arrivalPos="92.00" arrivalSpeed="5.97" duration="1698.00" routeLength="871.20" waitingTime="1511.00" waitingCount="17" stopTime="0.00" timeLoss="1620.43" rerouteNo="0" devices="tripinfo_f_9.0" vType="DEFAULT_VEHTYPE" speedFactor="0.86" vaporized=""/>
    <tripinfo id="f_9.1" depart="35.00" departLane="E9_0" departPos="5.10" departSpeed="0.00" departDelay="0.39" arrival="1700.00" arrivalLane="E12_0" arrivalPos="92.00" arrivalSpeed="7.85" duration="1665.00" routeLength="871.20" waitingTime="1459.00" waitingCount="18" stopTime="0.00" timeLoss="1595.05" rerouteNo="0" devices="tripinfo_f_9.1" vType="DEFAULT_VEHTYPE" speedFactor="0.94" vaporized=""/>
    <tripinfo id="f_6.7" depart="348.00" departLane="E3_0" departPos="5.10" departSpeed="0.00" departDelay="103.34" arrival="1912.00" arrivalLane="E6_0" arrivalPos="89.60" arrivalSpeed="5.85" duration="1564.00" routeLength="852.93" waitingTime="1338.00" waitingCount="18" stopTime="0.00" timeLoss="1498.28" rerouteNo="0" devices="tripinfo_f_6.7" vType="DEFAULT_VEHTYPE" speedFactor="0.98" vaporized=""/>
    <tripinfo id="f_7.7" depart="249.00" departLane="E23_0" departPos="5.10" departSpeed="0.00" departDelay="6.70" arrival="1957.00" arrivalLane="E14_0" arrivalPos="85.60" arrivalSpeed="5.09" duration="1708.00" routeLength="855.38" waitingTime="1505.00" waitingCount="17" stopTime="0.00" timeLoss="1639.87" rerouteNo="0" devices="tripinfo_f_7.7" vType="DEFAULT_VEHTYPE" speedFactor="0.96" vaporized=""/>
    <tripinfo id="f_4.3" depart="107.00" departLane="E19_0" departPos="5.10" departSpeed="0.00" departDelay="0.07" arrival="1984.00" arrivalLane="E15_0" arrivalPos="92.00" arrivalSpeed="0.00" duration="1877.00" routeLength="859.95" waitingTime="1706.00" waitingCount="16" stopTime="0.00" timeLoss="1820.03" rerouteNo="0" devices="tripinfo_f_4.3" vType="DEFAULT_VEHTYPE" speedFactor="1.10" vaporized="teleport"/>
    <tripinfo id="f_4.7" depart="250.00" departLane="E19_0" departPos="5.10" departSpeed="0.00" departDelay="0.50" arrival="1986.00" arrivalLane="E15_0" arrivalPos="92.00" arrivalSpeed="13.38" duration="1736.00" routeLength="848.75" waitingTime="1523.00" waitingCount="17" stopTime="0.00" timeLoss="1647.66" rerouteNo="0" devices="tripinfo_f_4.7" vType="DEFAULT_VEHTYPE" speedFactor="1.01" vaporized=""/>
    <tripinfo id="f_9.3" depart="104.00" departLane="E9_0" departPos="5.10" departSpeed="0.00" departDelay="0.16" arrival="1994.00" arrivalLane="E12_0" arrivalPos="92.00" arrivalSpeed="13.24" duration="1890.00" routeLength="862.17" waitingTime="1660.00" waitingCount="15" stopTime="0.00" timeLoss="1773.93" rerouteNo="0" devices="tripinfo_f_9.3" vType="DEFAULT_VEHTYPE" speedFactor="1.02" vaporized=""/>
    <tripinfo id="f_4.21" depart="749.00" departLane="E19_0" departPos="5.10" departSpeed="0.00" departDelay="0.50" arrival="2378.00" arrivalLane="E15_0" arrivalPos="92.00" arrivalSpeed="0.00" duration="1629.00" routeLength="825.94" waitingTime="1108.00" waitingCount="21" stopTime="0.00" timeLoss="1231.51" rerouteNo="0" devices="tripinfo_f_4.21" vType="DEFAULT_VEHTYPE" speedFactor="0.84" vaporized="teleport"/>
    <tripinfo id="f_7.8" depart="277.00" departLane="E23_0" departPos="5.10" departSpeed="0.00" departDelay="0.08" arrival="2448.00" arrivalLane="E14_0" arrivalPos="85.60" arrivalSpeed="5.70" duration="2171.00" routeLength="855.38" waitingTime="1938.00" waitingCount="25" stopTime="0.00" timeLoss="2114.54" rerouteNo="0" devices="tripinfo_f_7.8" vType="DEFAULT_VEHTYPE" speedFactor="1.15" vaporized=""/>
    <tripinfo id="f_7.9" depart="312.00" departLane="E23_0" departPos="5.10" departSpeed="0.00" departDelay="0.47" arrival="2451.00" arrivalLane="E14_0" arrivalPos="85.60" arrivalSpeed="8.10" duration="2139.00" routeLength="855.38" waitingTime="1891.00" waitingCount="27" stopTime="0.00" timeLoss="2079.40" rerouteNo="0" devices="tripinfo_f_7.9" vType="DEFAULT_VEHTYPE" speedFactor="1.09" vaporized=""/>
    <tripinfo id="f_8.2" depart="68.00" departLane="E8_0" departPos="5.10" departSpeed="0.00" departDelay="0.71" arrival="2465.00" arrivalLane="E17_0" arrivalPos="89.60" arrivalSpeed="6.01" duration="2397.00" routeLength="859.95" waitingTime="2132.00" waitingCount="27" stopTime="0.00" timeLoss="2323.51" rerouteNo="0" devices="tripinfo_f_8.2" vType="DEFAULT_VEHTYPE" speedFactor="0.89" vaporized=""/>
    <tripinfo id="f_4.8" depart="286.00" departLane="E19_0" departPos="5.10" departSpeed="0.00" departDelay="0.86" arrival="2503.00" arrivalLane="E15_0" arrivalPos="92.00" arrivalSpeed="12.87" duration="2217.00" routeLength="848.75" waitingTime="1951.00" waitingCount="23" stopTime="0.00" timeLoss="2103.20" rerouteNo="0" devices="tripinfo_f_4.8" vType="DEFAULT_VEHTYPE" speedFactor="1.01" vaporized=""/>
    <tripinfo id="f_9.27" depart="935.00" departLane="E9_0" departPos="5.10" departSpeed="0.00" departDelay="0.40" arrival="2527.00" arrivalLane="E12_0" arrivalPos="92.00" arrivalSpeed="12.99" duration="1592.00" routeLength="798.90" waitingTime="920.00" waitingCount="4" stopTime="0.00" timeLoss="947.46" rerouteNo="0" devices="tripinfo_f_9.27" vType="DEFAULT_VEHTYPE" speedFactor="0.97" vaporized=""/>
    <tripinfo id="f_4.4" depart="143.00" departLane="E19_0" departPos="5.10" departSpeed="0.00" departDelay="0.43" arrival="2555.00" arrivalLane="E15_0" arrivalPos="92.00" arrivalSpeed="4.74" duration="2412.00" routeLength="859.95" waitingTime="2185.00" waitingCount="23" stopTime="0.00" timeLoss="2337.43" rerouteNo="0" devices="tripinfo_f_4.4" vType="DEFAULT_VEHTYPE" speedFactor="0.88" vaporized=""/>
    <tripinfo id="f_5.24" depart="856.00" departLane="E1_0" departPos="5.10" departSpeed="0.00" departDelay="0.57" arrival="2590.00" arrivalLane="E20_0" arrivalPos="89.60" arrivalSpeed="5.08" duration="1734.00" routeLength="863.95" waitingTime="1496.00" waitingCount="14" stopTime="0.00" timeLoss="1668.25" rerouteNo="0" devices="tripinfo_f_5.24" vType="DEFAULT_VEHTYPE" speedFactor="0.98" vaporized=""/>
    <tripinfo id="f_2.7" depart="241.00" departLane="E17_0" departPos="5.10" departSpeed="0.00" departDelay="3.27" arrival="2592.00" arrivalLane="E20_0" arrivalPos="89.60" arrivalSpeed="6.42" duration="2351.00" routeLength="855.88" waitingTime="1932.00" waitingCount="17" stopTime="0.00" timeLoss="2124.98" rerouteNo="0" devices="tripinfo_f_2.7" vType="DEFAULT_VEHTYPE" speedFactor="1.06" vaporized=""/>
    <tripinfo id="f_4.5" depart="179.00" departLane="E19_0" departPos="5.10" departSpeed="0.00" departDelay="0.79" arrival="2697.00" arrivalLane="E15_0" arrivalPos="92.00" arrivalSpeed="5.37" duration="2518.00" routeLength="859.95" waitingTime="2294.00" waitingCount="24" stopTime="0.00" timeLoss="2455.35" rerouteNo="0" devices="tripinfo_f_4.5" vType="DEFAULT_VEHTYPE" speedFactor="1.02" vaporized=""/>
    <tripinfo id="f_9.2" depart="70.00" departLane="E9_0" departPos="5.10" departSpeed="0.00" departDelay="0.77" arrival="2705.00" arrivalLane="E12_0" arrivalPos="92.00" arrivalSpeed="12.64" duration="2635.00" routeLength="871.20" waitingTime="2399.00" waitingCount="25" stopTime="0.00" timeLoss="2564.82" rerouteNo="0" devices="tripinfo_f_9.2" vType="DEFAULT_VEHTYPE" speedFactor="0.95" vaporized=""/>
    <tripinfo id="f_3.2" depart="68.00" departLane="E15_0" departPos="5.10" departSpeed="0.00" departDelay="0.71" arrival="2964.00" arrivalLane="E15_0" arrivalPos="92.00" arrivalSpeed="0.00" duration="2896.00" routeLength="857.32" waitingTime="2526.00" waitingCount="33" stopTime="0.00" timeLoss="2744.32" rerouteNo="0" devices="tripinfo_f_3.2" vType="DEFAULT_VEHTYPE" speedFactor="0.97" vaporized="teleport"/>