<?xml version="1.0" encoding="UTF-8"?>

<!-- generated on 2024-11-20 13:22:19 by Eclipse SUMO sumo Version 1.21.0
<sumoConfiguration xmlns:xsi="http://www.w3.org/2001/XMLSchema-instance" xsi:noNamespaceSchemaLocation="http://sumo.dlr.de/xsd/sumoConfiguration.xsd">

    <input>
        <net-file value="../sumo/test.net.xml"/>
        <route-files value="../sumo/test.rou.xml"/>
        <additional-files value="../sumo/test.add.xml"/>
    </input>

    <output>
        <tripinfo-output value="../sumo/tripinfo.xml"/>
    </output>

</sumoConfiguration>
-->

<tripinfos xmlns:xsi="http://www.w3.org/2001/XMLSchema-instance" xsi:noNamespaceSchemaLocation="http://sumo.dlr.de/xsd/tripinfo_file.xsd">
    <tripinfo id="f_11.0" depart="0.00" departLane="E13_0" departPos="5.10" departSpeed="0.00" departDelay="0.00" arrival="33.00" arrivalLane="E22_0" arrivalPos="92.00" arrivalSpeed="14.61" duration="33.00" routeLength="376.68" waitingTime="0.00" waitingCount="0" stopTime="0.00" timeLoss="7.46" rerouteNo="0" devices="tripinfo_f_11.0" vType="DEFAULT_VEHTYPE" speedFactor="1.08" vaporized=""/>
    <tripinfo id="f_6.0" depart="0.00" departLane="E9_0" departPos="5.10" departSpeed="0.00" departDelay="0.00" arrival="35.00" arrivalLane="E6_0" arrivalPos="83.20" arrivalSpeed="14.87" duration="35.00" routeLength="340.34" waitingTime="0.00" waitingCount="0" stopTime="0.00" timeLoss="11.57" rerouteNo="0" devices="tripinfo_f_6.0" vType="DEFAULT_VEHTYPE" speedFactor="1.12" vaporized=""/>
    <tripinfo id="f_10.0" depart="0.00" departLane="E10_0" departPos="5.10" departSpeed="0.00" departDelay="0.00" arrival="36.00" arrivalLane="E4_1" arrivalPos="79.20" arrivalSpeed="13.89" duration="36.00" routeLength="368.83" waitingTime="0.00" waitingCount="0" stopTime="0.00" timeLoss="8.29" rerouteNo="0" devices="tripinfo_f_10.0" vType="DEFAULT_VEHTYPE" speedFactor="1.01" vaporized=""/>
    <tripinfo id="f_1.0" depart="0.00" departLane="E4_0" departPos="5.10" departSpeed="0.00" departDelay="0.00" arrival="38.00" arrivalLane="E12_1" arrivalPos="92.00" arrivalSpeed="11.76" duration="38.00" routeLength="387.72" waitingTime="0.00" waitingCount="0" stopTime="0.00" timeLoss="6.92" rerouteNo="0" devices="tripinfo_f_1.0" vType="DEFAULT_VEHTYPE" speedFactor="0.94" vaporized=""/>
    <tripinfo id="f_3.0" depart="3.00" departLane="E10_0" departPos="5.10" departSpeed="0.00" departDelay="3.00" arrival="38.00" arrivalLane="E4_1" arrivalPos="79.20" arrivalSpeed="14.27" duration="35.00" routeLength="368.83" waitingTime="0.00" waitingCount="0" stopTime="0.00" timeLoss="9.07" rerouteNo="0" devices="tripinfo_f_3.0" vType="DEFAULT_VEHTYPE" speedFactor="1.09" vaporized=""/>
    <tripinfo id="f_4.0" depart="0.00" departLane="E23_0" departPos="5.10" departSpeed="0.00" departDelay="0.00" arrival="40.00" arrivalLane="E5_0" arrivalPos="79.20" arrivalSpeed="14.02" duration="40.00" routeLength="366.33" waitingTime="1.00" waitingCount="1" stopTime="0.00" timeLoss="13.01" rerouteNo="0" devices="tripinfo_f_4.0" vType="DEFAULT_VEHTYPE" speedFactor="1.03" vaporized=""/>
    <tripinfo id="f_5.0" depart="5.00" departLane="E10_0" departPos="5.10" departSpeed="0.00" departDelay="5.00" arrival="41.00" arrivalLane="E4_1" arrivalPos="79.20" arrivalSpeed="14.39" duration="36.00" routeLength="368.83" waitingTime="0.00" waitingCount="0" stopTime="0.00" timeLoss="9.40" rerouteNo="0" devices="tripinfo_f_5.0" vType="DEFAULT_VEHTYPE" speedFactor="1.05" vaporized=""/>
    <tripinfo id="f_10.1" depart="15.00" departLane="E10_0" departPos="5.10" departSpeed="0.00" departDelay="0.37" arrival="48.00" arrivalLane="E4_1" arrivalPos="79.20" arrivalSpeed="15.22" duration="33.00" routeLength="368.83" waitingTime="0.00" waitingCount="0" stopTime="0.00" timeLoss="7.63" rerouteNo="0" devices="tripinfo_f_10.1" vType="DEFAULT_VEHTYPE" speedFactor="1.16" vaporized=""/>
    <tripinfo id="f_6.1" depart="15.00" departLane="E9_0" departPos="5.10" departSpeed="0.00" departDelay="0.37" arrival="49.00" arrivalLane="E6_0" arrivalPos="83.20" arrivalSpeed="16.22" duration="34.00" routeLength="340.34" waitingTime="0.00" waitingCount="0" stopTime="0.00" timeLoss="11.50" rerouteNo="0" devices="tripinfo_f_6.1" vType="DEFAULT_VEHTYPE" speedFactor="1.18" vaporized=""/>
    <tripinfo id="f_1.1" depart="15.00" departLane="E4_0" departPos="5.10" departSpeed="0.00" departDelay="0.37" arrival="54.00" arrivalLane="E12_1" arrivalPos="92.00" arrivalSpeed="12.86" duration="39.00" routeLength="387.72" waitingTime="0.00" waitingCount="0" stopTime="0.00" timeLoss="6.93" rerouteNo="0" devices="tripinfo_f_1.1" vType="DEFAULT_VEHTYPE" speedFactor="0.94" vaporized=""/>
    <tripinfo id="f_3.1" depart="16.00" departLane="E10_0" departPos="5.10" departSpeed="0.00" departDelay="1.72" arrival="55.00" arrivalLane="E4_1" arrivalPos="79.20" arrivalSpeed="11.99" duration="39.00" routeLength="368.83" waitingTime="0.00" waitingCount="0" stopTime="0.00" timeLoss="8.47" rerouteNo="0" devices="tripinfo_f_3.1" vType="DEFAULT_VEHTYPE" speedFactor="0.95" vaporized=""/>
    <tripinfo id="f_0.0" depart="0.00" departLane="E17_0" departPos="5.10" departSpeed="0.00" departDelay="0.00" arrival="57.00" arrivalLane="E12_0" arrivalPos="92.00" arrivalSpeed="13.89" duration="57.00" routeLength="378.42" waitingTime="16.00" waitingCount="1" stopTime="0.00" timeLoss="29.55" rerouteNo="0" devices="tripinfo_f_0.0" vType="DEFAULT_VEHTYPE" speedFactor="1.06" vaporized=""/>
    <tripinfo id="f_0.1" depart="15.00" departLane="E17_0" departPos="5.10" departSpeed="0.00" departDelay="0.37" arrival="58.00" arrivalLane="E12_1" arrivalPos="92.00" arrivalSpeed="12.31" duration="43.00" routeLength="373.26" waitingTime="1.00" waitingCount="1" stopTime="0.00" timeLoss="13.06" rerouteNo="0" devices="tripinfo_f_0.1" vType="DEFAULT_VEHTYPE" speedFactor="0.94" vaporized=""/>
    <tripinfo id="f_9.0" depart="3.00" departLane="E15_0" departPos="5.10" departSpeed="0.00" departDelay="3.00" arrival="59.00" arrivalLane="E23_1" arrivalPos="83.20" arrivalSpeed="10.60" duration="56.00" routeLength="368.29" waitingTime="8.00" waitingCount="1" stopTime="0.00" timeLoss="22.93" rerouteNo="0" devices="tripinfo_f_9.0" vType="DEFAULT_VEHTYPE" speedFactor="0.88" vaporized=""/>
    <tripinfo id="f_15.0" depart="0.00" departLane="E15_0" departPos="5.10" departSpeed="0.00" departDelay="0.00" arrival="60.00" arrivalLane="E23_0" arrivalPos="83.20" arrivalSpeed="8.46" duration="60.00" routeLength="358.01" waitingTime="9.00" waitingCount="1" stopTime="0.00" timeLoss="28.73" rerouteNo="0" devices="tripinfo_f_15.0" vType="DEFAULT_VEHTYPE" speedFactor="0.89" vaporized=""/>
    <tripinfo id="f_15.1" depart="15.00" departLane="E15_0" departPos="5.10" departSpeed="0.00" departDelay="0.37" arrival="61.00" arrivalLane="E23_1" arrivalPos="83.20" arrivalSpeed="11.09" duration="46.00" routeLength="368.29" waitingTime="0.00" waitingCount="0" stopTime="0.00" timeLoss="11.48" rerouteNo="0" devices="tripinfo_f_15.1" vType="DEFAULT_VEHTYPE" speedFactor="0.83" vaporized=""/>
    <tripinfo id="f_9.1" depart="18.00" departLane="E15_0" departPos="5.10" departSpeed="0.00" departDelay="3.00" arrival="61.00" arrivalLane="E23_0" arrivalPos="83.20" arrivalSpeed="9.13" duration="43.00" routeLength="358.01" waitingTime="0.00" waitingCount="0" stopTime="0.00" timeLoss="19.94" rerouteNo="0" devices="tripinfo_f_9.1" vType="DEFAULT_VEHTYPE" speedFactor="1.17" vaporized=""/>
    <tripinfo id="f_7.0" depart="3.00" departLane="E23_0" departPos="5.10" departSpeed="0.00" departDelay="3.00" arrival="63.00" arrivalLane="E8_1" arrivalPos="92.00" arrivalSpeed="6.11" duration="60.00" routeLength="378.93" waitingTime="15.00" waitingCount="1" stopTime="0.00" timeLoss="30.94" rerouteNo="0" devices="tripinfo_f_7.0" vType="DEFAULT_VEHTYPE" speedFactor="0.99" vaporized=""/>
    <tripinfo id="f_15.2" depart="30.00" departLane="E15_0" departPos="5.10" departSpeed="0.00" departDelay="0.73" arrival="65.00" arrivalLane="E23_1" arrivalPos="83.20" arrivalSpeed="11.32" duration="35.00" routeLength="363.17" waitingTime="0.00" waitingCount="0" stopTime="0.00" timeLoss="9.83" rerouteNo="0" devices="tripinfo_f_15.2" vType="DEFAULT_VEHTYPE" speedFactor="1.09" vaporized=""/>
    <tripinfo id="f_0.2" depart="30.00" departLane="E17_0" departPos="5.10" departSpeed="0.00" departDelay="0.73" arrival="69.00" arrivalLane="E12_1" arrivalPos="92.00" arrivalSpeed="12.13" duration="39.00" routeLength="373.26" waitingTime="0.00" waitingCount="0" stopTime="0.00" timeLoss="6.94" rerouteNo="0" devices="tripinfo_f_0.2" vType="DEFAULT_VEHTYPE" speedFactor="0.90" vaporized=""/>
    <tripinfo id="f_9.2" depart="33.00" departLane="E15_0" departPos="5.10" departSpeed="0.00" departDelay="3.00" arrival="74.00" arrivalLane="E23_1" arrivalPos="83.20" arrivalSpeed="10.98" duration="41.00" routeLength="363.17" waitingTime="0.00" waitingCount="0" stopTime="0.00" timeLoss="8.59" rerouteNo="0" devices="tripinfo_f_9.2" vType="DEFAULT_VEHTYPE" speedFactor="0.85" vaporized=""/>
    <tripinfo id="f_15.3" depart="44.00" departLane="E15_0" departPos="5.10" departSpeed="0.00" departDelay="0.10" arrival="78.00" arrivalLane="E23_0" arrivalPos="83.20" arrivalSpeed="14.88" duration="34.00" routeLength="358.01" waitingTime="0.00" waitingCount="0" stopTime="0.00" timeLoss="10.22" rerouteNo="0" devices="tripinfo_f_15.3" vType="DEFAULT_VEHTYPE" speedFactor="1.12" vaporized=""/>
    <tripinfo id="f_8.0" depart="3.00" departLane="E1_0" departPos="5.10" departSpeed="0.00" departDelay="3.00" arrival="82.00" arrivalLane="E13_1" arrivalPos="92.00" arrivalSpeed="8.48" duration="79.00" routeLength="381.84" waitingTime="31.00" waitingCount="2" stopTime="0.00" timeLoss="48.06" rerouteNo="0" devices="tripinfo_f_8.0" vType="DEFAULT_VEHTYPE" speedFactor="0.93" vaporized=""/>
    <tripinfo id="f_12.0" depart="0.00" departLane="E2_0" departPos="5.10" departSpeed="0.00" departDelay="0.00" arrival="84.00" arrivalLane="E20_1" arrivalPos="80.00" arrivalSpeed="13.65" duration="84.00" routeLength="373.04" waitingTime="46.00" waitingCount="1" stopTime="0.00" timeLoss="56.99" rerouteNo="0" devices="tripinfo_f_12.0" vType="DEFAULT_VEHTYPE" speedFactor="1.03" vaporized=""/>
    <tripinfo id="f_16.0" depart="0.00" departLane="E1_0" departPos="5.10" departSpeed="0.00" departDelay="0.00" arrival="84.00" arrivalLane="E9_0" arrivalPos="79.20" arrivalSpeed="6.06" duration="84.00" routeLength="358.51" waitingTime="37.00" waitingCount="2" stopTime="0.00" timeLoss="55.09" rerouteNo="0" devices="tripinfo_f_16.0" vType="DEFAULT_VEHTYPE" speedFactor="0.94" vaporized=""/>
    <tripinfo id="f_8.1" depart="18.00" departLane="E1_0" departPos="5.10" departSpeed="0.00" departDelay="3.72" arrival="84.00" arrivalLane="E13_1" arrivalPos="92.00" arrivalSpeed="11.17" duration="66.00" routeLength="381.84" waitingTime="17.00" waitingCount="2" stopTime="0.00" timeLoss="37.67" rerouteNo="0" devices="tripinfo_f_8.1" vType="DEFAULT_VEHTYPE" speedFactor="1.01" vaporized=""/>
    <tripinfo id="f_16.2" depart="29.00" departLane="E1_0" departPos="5.10" departSpeed="0.00" departDelay="0.43" arrival="84.00" arrivalLane="E9_1" arrivalPos="79.20" arrivalSpeed="5.27" duration="55.00" routeLength="368.83" waitingTime="11.00" waitingCount="1" stopTime="0.00" timeLoss="27.39" rerouteNo="0" devices="tripinfo_f_16.2" vType="DEFAULT_VEHTYPE" speedFactor="1.02" vaporized=""/>
    <tripinfo id="f_8.2" depart="32.00" departLane="E1_0" departPos="5.10" departSpeed="0.00" departDelay="3.43" arrival="84.00" arrivalLane="E13_0" arrivalPos="92.00" arrivalSpeed="10.85" duration="52.00" routeLength="381.84" waitingTime="3.00" waitingCount="2" stopTime="0.00" timeLoss="26.22" rerouteNo="0" devices="tripinfo_f_8.2" vType="DEFAULT_VEHTYPE" speedFactor="1.10" vaporized=""/>
    <tripinfo id="f_16.1" depart="15.00" departLane="E1_0" departPos="5.10" departSpeed="0.00" departDelay="0.72" arrival="87.00" arrivalLane="E9_0" arrivalPos="79.20" arrivalSpeed="7.68" duration="72.00" routeLength="358.51" waitingTime="20.00" waitingCount="2" stopTime="0.00" timeLoss="40.51" rerouteNo="0" devices="tripinfo_f_16.1" vType="DEFAULT_VEHTYPE" speedFactor="0.87" vaporized=""/>
    <tripinfo id="f_12.1" depart="21.00" departLane="E2_0" departPos="5.10" departSpeed="0.00" departDelay="6.00" arrival="88.00" arrivalLane="E20_1" arrivalPos="80.00" arrivalSpeed="10.73" duration="67.00" routeLength="373.04" waitingTime="20.00" waitingCount="2" stopTime="0.00" timeLoss="39.85" rerouteNo="0" devices="tripinfo_f_12.1" vType="DEFAULT_VEHTYPE" speedFactor="1.01" vaporized=""/>
    <tripinfo id="f_12.3" depart="45.00" departLane="E2_0" departPos="5.10" departSpeed="0.00" departDelay="0.00" arrival="94.00" arrivalLane="E20_1" arrivalPos="80.00" arrivalSpeed="11.21" duration="49.00" routeLength="373.04" waitingTime="3.00" waitingCount="1" stopTime="0.00" timeLoss="18.00" rerouteNo="0" devices="tripinfo_f_12.3" vType="DEFAULT_VEHTYPE" speedFactor="0.88" vaporized=""/>
    <tripinfo id="f_13.1" depart="15.00" departLane="E20_0" departPos="5.10" departSpeed="0.00" departDelay="0.37" arrival="95.00" arrivalLane="E12_1" arrivalPos="92.00" arrivalSpeed="13.54" duration="80.00" routeLength="360.48" waitingTime="32.00" waitingCount="2" stopTime="0.00" timeLoss="51.79" rerouteNo="0" devices="tripinfo_f_13.1" vType="DEFAULT_VEHTYPE" speedFactor="0.97" vaporized=""/>
    <tripinfo id="f_12.2" depart="34.00" departLane="E2_0" departPos="5.10" departSpeed="0.00" departDelay="4.00" arrival="95.00" arrivalLane="E20_0" arrivalPos="80.00" arrivalSpeed="6.74" duration="61.00" routeLength="373.04" waitingTime="12.00" waitingCount="2" stopTime="0.00" timeLoss="35.53" rerouteNo="0" devices="tripinfo_f_12.2" vType="DEFAULT_VEHTYPE" speedFactor="1.09" vaporized=""/>
    <tripinfo id="f_16.3" depart="43.00" departLane="E1_0" departPos="5.10" departSpeed="0.00" departDelay="0.15" arrival="101.00" arrivalLane="E9_0" arrivalPos="79.20" arrivalSpeed="13.69" duration="58.00" routeLength="358.51" waitingTime="18.00" waitingCount="1" stopTime="0.00" timeLoss="31.00" rerouteNo="0" devices="tripinfo_f_16.3" vType="DEFAULT_VEHTYPE" speedFactor="1.02" vaporized=""/>
    <tripinfo id="f_2.1" depart="15.00" departLane="E18_0" departPos="5.10" departSpeed="0.00" departDelay="0.72" arrival="102.00" arrivalLane="E10_0" arrivalPos="92.00" arrivalSpeed="12.69" duration="87.00" routeLength="365.63" waitingTime="37.00" waitingCount="2" stopTime="0.00" timeLoss="56.62" rerouteNo="0" devices="tripinfo_f_2.1" vType="DEFAULT_VEHTYPE" speedFactor="0.92" vaporized=""/>
    <tripinfo id="f_8.3" depart="46.00" departLane="E1_0" departPos="5.10" departSpeed="0.00" departDelay="3.15" arrival="102.00" arrivalLane="E13_1" arrivalPos="92.00" arrivalSpeed="13.61" duration="56.00" routeLength="381.84" waitingTime="17.00" waitingCount="1" stopTime="0.00" timeLoss="27.83" rerouteNo="0" devices="tripinfo_f_8.3" vType="DEFAULT_VEHTYPE" speedFactor="1.00" vaporized=""/>
    <tripinfo id="f_2.0" depart="0.00" departLane="E18_0" departPos="5.10" departSpeed="0.00" departDelay="0.00" arrival="103.00" arrivalLane="E10_1" arrivalPos="92.00" arrivalSpeed="11.67" duration="103.00" routeLength="355.31" waitingTime="51.00" waitingCount="2" stopTime="0.00" timeLoss="71.48" rerouteNo="0" devices="tripinfo_f_2.0" vType="DEFAULT_VEHTYPE" speedFactor="0.86" vaporized=""/>
    <tripinfo id="f_2.2" depart="29.00" departLane="E18_0" departPos="5.10" departSpeed="0.00" departDelay="0.43" arrival="104.00" arrivalLane="E10_0" arrivalPos="92.00" arrivalSpeed="13.39" duration="75.00" routeLength="355.31" waitingTime="24.00" waitingCount="2" stopTime="0.00" timeLoss="47.22" rerouteNo="0" devices="tripinfo_f_2.2" vType="DEFAULT_VEHTYPE" speedFactor="0.97" vaporized=""/>
    <tripinfo id="f_2.3" depart="43.00" departLane="E18_0" departPos="5.10" departSpeed="0.00" departDelay="0.15" arrival="105.00" arrivalLane="E10_1" arrivalPos="92.00" arrivalSpeed="14.65" duration="62.00" routeLength="365.63" waitingTime="9.00" waitingCount="2" stopTime="0.00" timeLoss="35.51" rerouteNo="0" devices="tripinfo_f_2.3" vType="DEFAULT_VEHTYPE" speedFactor="1.10" vaporized=""/>
    <tripinfo id="f_9.3" depart="47.00" departLane="E15_0" departPos="5.10" departSpeed="0.00" departDelay="2.00" arrival="105.00" arrivalLane="E23_0" arrivalPos="83.20" arrivalSpeed="4.85" duration="58.00" routeLength="358.01" waitingTime="13.00" waitingCount="1" stopTime="0.00" timeLoss="28.39" rerouteNo="0" devices="tripinfo_f_9.3" vType="DEFAULT_VEHTYPE" speedFactor="0.91" vaporized=""/>
    <tripinfo id="f_6.3" depart="44.00" departLane="E9_0" departPos="5.10" departSpeed="0.00" departDelay="0.10" arrival="111.00" arrivalLane="E6_1" arrivalPos="83.20" arrivalSpeed="12.18" duration="67.00" routeLength="355.82" waitingTime="25.00" waitingCount="1" stopTime="0.00" timeLoss="37.63" rerouteNo="0" devices="tripinfo_f_6.3" vType="DEFAULT_VEHTYPE" speedFactor="0.94" vaporized=""/>
    <tripinfo id="f_6.2" depart="30.00" departLane="E9_0" departPos="5.10" departSpeed="0.00" departDelay="0.73" arrival="112.00" arrivalLane="E6_0" arrivalPos="83.20" arrivalSpeed="11.65" duration="82.00" routeLength="340.34" waitingTime="39.00" waitingCount="1" stopTime="0.00" timeLoss="52.33" rerouteNo="0" devices="tripinfo_f_6.2" vType="DEFAULT_VEHTYPE" speedFactor="0.88" vaporized=""/>
    <tripinfo id="f_13.2" depart="30.00" departLane="E20_0" departPos="5.10" departSpeed="0.00" departDelay="0.73" arrival="113.00" arrivalLane="E12_1" arrivalPos="92.00" arrivalSpeed="4.86" duration="83.00" routeLength="360.48" waitingTime="29.00" waitingCount="3" stopTime="0.00" timeLoss="56.88" rerouteNo="0" devices="tripinfo_f_13.2" vType="DEFAULT_VEHTYPE" speedFactor="1.04" vaporized=""/>
    <tripinfo id="f_9.4" depart="62.00" departLane="E15_0" departPos="5.10" departSpeed="0.00" departDelay="2.00" arrival="114.00" arrivalLane="E23_1" arrivalPos="83.20" arrivalSpeed="12.23" duration="52.00" routeLength="368.29" waitingTime="11.00" waitingCount="1" stopTime="0.00" timeLoss="27.35" rerouteNo="0" devices="tripinfo_f_9.4" vType="DEFAULT_VEHTYPE" speedFactor="1.15" vaporized=""/>
    <tripinfo id="f_6.4" depart="65.00" departLane="E9_0" departPos="5.10" departSpeed="0.00" departDelay="6.46" arrival="115.00" arrivalLane="E6_1" arrivalPos="83.20" arrivalSpeed="13.26" duration="50.00" routeLength="355.82" waitingTime="7.00" waitingCount="1" stopTime="0.00" timeLoss="21.34" rerouteNo="0" devices="tripinfo_f_6.4" vType="DEFAULT_VEHTYPE" speedFactor="1.00" vaporized=""/>
    <tripinfo id="f_6.5" depart="74.00" departLane="E9_0" departPos="5.10" departSpeed="0.00" departDelay="0.83" arrival="115.00" arrivalLane="E6_0" arrivalPos="83.20" arrivalSpeed="14.58" duration="41.00" routeLength="340.34" waitingTime="0.00" waitingCount="0" stopTime="0.00" timeLoss="16.83" rerouteNo="0" devices="tripinfo_f_6.5" vType="DEFAULT_VEHTYPE" speedFactor="1.12" vaporized=""/>
    <tripinfo id="f_13.0" depart="0.00" departLane="E20_0" departPos="5.10" departSpeed="0.00" departDelay="0.00" arrival="116.00" arrivalLane="E12_0" arrivalPos="92.00" arrivalSpeed="5.86" duration="116.00" routeLength="355.31" waitingTime="63.00" waitingCount="2" stopTime="0.00" timeLoss="83.81" rerouteNo="0" devices="tripinfo_f_13.0" vType="DEFAULT_VEHTYPE" speedFactor="0.83" vaporized=""/>
    <tripinfo id="f_14.0" depart="0.00" departLane="E12_0" departPos="5.10" departSpeed="0.00" departDelay="0.00" arrival="116.00" arrivalLane="E3_0" arrivalPos="83.20" arrivalSpeed="13.70" duration="116.00" routeLength="378.92" waitingTime="66.00" waitingCount="3" stopTime="0.00" timeLoss="88.28" rerouteNo="0" devices="tripinfo_f_14.0" vType="DEFAULT_VEHTYPE" speedFactor="1.05" vaporized=""/>
    <tripinfo id="f_14.1" depart="15.00" departLane="E12_0" departPos="5.10" departSpeed="0.00" departDelay="0.37" arrival="116.00" arrivalLane="E3_1" arrivalPos="83.20" arrivalSpeed="12.20" duration="101.00" routeLength="378.92" waitingTime="49.00" waitingCount="3" stopTime="0.00" timeLoss="69.06" rerouteNo="0" devices="tripinfo_f_14.1" vType="DEFAULT_VEHTYPE" speedFactor="0.89" vaporized=""/>
    <tripinfo id="f_11.3" depart="43.00" departLane="E13_0" departPos="5.10" departSpeed="0.00" departDelay="0.15" arrival="116.00" arrivalLane="E22_1" arrivalPos="92.00" arrivalSpeed="15.94" duration="73.00" routeLength="381.84" waitingTime="25.00" waitingCount="2" stopTime="0.00" timeLoss="48.01" rerouteNo="0" devices="tripinfo_f_11.3" vType="DEFAULT_VEHTYPE" speedFactor="1.17" vaporized=""/>
    <tripinfo id="f_13.3" depart="44.00" departLane="E20_0" departPos="5.10" departSpeed="0.00" departDelay="0.10" arrival="116.00" arrivalLane="E12_1" arrivalPos="92.00" arrivalSpeed="9.16" duration="72.00" routeLength="360.48" waitingTime="23.00" waitingCount="2" stopTime="0.00" timeLoss="43.20" rerouteNo="0" devices="tripinfo_f_13.3" vType="DEFAULT_VEHTYPE" speedFactor="0.97" vaporized=""/>
    <tripinfo id="f_5.1" depart="19.00" departLane="E10_0" departPos="5.10" departSpeed="0.00" departDelay="4.37" arrival="117.00" arrivalLane="E4_0" arrivalPos="79.20" arrivalSpeed="12.88" duration="98.00" routeLength="363.67" waitingTime="54.00" waitingCount="1" stopTime="0.00" timeLoss="68.21" rerouteNo="0" devices="tripinfo_f_5.1" vType="DEFAULT_VEHTYPE" speedFactor="0.93" vaporized=""/>
    <tripinfo id="f_3.2" depart="29.00" departLane="E10_0" departPos="5.10" departSpeed="0.00" departDelay="0.43" arrival="117.00" arrivalLane="E4_1" arrivalPos="79.20" arrivalSpeed="16.26" duration="88.00" routeLength="368.83" waitingTime="51.00" waitingCount="1" stopTime="0.00" timeLoss="63.57" rerouteNo="0" devices="tripinfo_f_3.2" vType="DEFAULT_VEHTYPE" speedFactor="1.18" vaporized=""/>
    <tripinfo id="f_15.4" depart="59.00" departLane="E15_0" departPos="5.10" departSpeed="0.00" departDelay="0.46" arrival="117.00" arrivalLane="E23_0" arrivalPos="83.20" arrivalSpeed="8.82" duration="58.00" routeLength="358.01" waitingTime="12.00" waitingCount="1" stopTime="0.00" timeLoss="30.95" rerouteNo="0" devices="tripinfo_f_15.4" vType="DEFAULT_VEHTYPE" speedFactor="1.01" vaporized=""/>
    <tripinfo id="f_14.2" depart="30.00" departLane="E12_0" departPos="5.10" departSpeed="0.00" departDelay="0.73" arrival="118.00" arrivalLane="E3_0" arrivalPos="83.20" arrivalSpeed="14.07" duration="88.00" routeLength="378.92" waitingTime="42.00" waitingCount="2" stopTime="0.00" timeLoss="60.82" rerouteNo="0" devices="tripinfo_f_14.2" vType="DEFAULT_VEHTYPE" speedFactor="1.04" vaporized=""/>
    <tripinfo id="f_14.3" depart="44.00" departLane="E12_0" departPos="5.10" departSpeed="0.00" departDelay="0.10" arrival="118.00" arrivalLane="E3_1" arrivalPos="83.20" arrivalSpeed="14.84" duration="74.00" routeLength="384.08" waitingTime="29.00" waitingCount="1" stopTime="0.00" timeLoss="46.94" rerouteNo="0" devices="tripinfo_f_14.3" vType="DEFAULT_VEHTYPE" speedFactor="1.08" vaporized=""/>
    <tripinfo id="f_11.4" depart="58.00" departLane="E13_0" departPos="5.10" departSpeed="0.00" departDelay="0.86" arrival="118.00" arrivalLane="E22_1" arrivalPos="92.00" arrivalSpeed="14.37" duration="60.00" routeLength="381.84" waitingTime="13.00" waitingCount="2" stopTime="0.00" timeLoss="32.76" rerouteNo="0" devices="tripinfo_f_11.4" vType="DEFAULT_VEHTYPE" speedFactor="1.04" vaporized=""/>
    <tripinfo id="f_11.1" depart="15.00" departLane="E13_0" departPos="5.10" departSpeed="0.00" departDelay="0.72" arrival="119.00" arrivalLane="E22_0" arrivalPos="92.00" arrivalSpeed="12.87" duration="104.00" routeLength="376.68" waitingTime="52.00" waitingCount="2" stopTime="0.00" timeLoss="76.57" rerouteNo="0" devices="tripinfo_f_11.1" vType="DEFAULT_VEHTYPE" speedFactor="1.02" vaporized=""/>
    <tripinfo id="f_4.2" depart="30.00" departLane="E23_0" departPos="5.10" departSpeed="0.00" departDelay="0.73" arrival="119.00" arrivalLane="E5_1" arrivalPos="79.20" arrivalSpeed="13.59" duration="89.00" routeLength="371.50" waitingTime="39.00" waitingCount="3" stopTime="0.00" timeLoss="61.46" rerouteNo="0" devices="tripinfo_f_4.2" vType="DEFAULT_VEHTYPE" speedFactor="1.00" vaporized=""/>
    <tripinfo id="f_10.2" depart="30.00" departLane="E10_0" departPos="5.10" departSpeed="0.00" departDelay="0.73" arrival="120.00" arrivalLane="E4_1" arrivalPos="79.20" arrivalSpeed="12.53" duration="90.00" routeLength="368.83" waitingTime="47.00" waitingCount="1" stopTime="0.00" timeLoss="60.32" rerouteNo="0" devices="tripinfo_f_10.2" vType="DEFAULT_VEHTYPE" speedFactor="0.96" vaporized=""/>
    <tripinfo id="f_5.2" depart="32.00" departLane="E10_0" departPos="5.10" departSpeed="0.00" departDelay="2.73" arrival="120.00" arrivalLane="E4_0" arrivalPos="79.20" arrivalSpeed="11.21" duration="88.00" routeLength="363.67" waitingTime="41.00" waitingCount="2" stopTime="0.00" timeLoss="56.81" rerouteNo="0" devices="tripinfo_f_5.2" vType="DEFAULT_VEHTYPE" speedFactor="0.90" vaporized=""/>
    <tripinfo id="f_11.2" depart="29.00" departLane="E13_0" departPos="5.10" departSpeed="0.00" departDelay="0.43" arrival="121.00" arrivalLane="E22_0" arrivalPos="92.00" arrivalSpeed="13.56" duration="92.00" routeLength="376.68" waitingTime="36.00" waitingCount="2" stopTime="0.00" timeLoss="63.71" rerouteNo="0" devices="tripinfo_f_11.2" vType="DEFAULT_VEHTYPE" speedFactor="0.99" vaporized=""/>
    <tripinfo id="f_11.5" depart="72.00" departLane="E13_0" departPos="5.10" departSpeed="0.00" departDelay="0.58" arrival="121.00" arrivalLane="E22_1" arrivalPos="92.00" arrivalSpeed="12.90" duration="49.00" routeLength="381.84" waitingTime="0.00" waitingCount="0" stopTime="0.00" timeLoss="19.54" rerouteNo="0" devices="tripinfo_f_11.5" vType="DEFAULT_VEHTYPE" speedFactor="0.98" vaporized=""/>
    <tripinfo id="f_3.3" depart="43.00" departLane="E10_0" departPos="5.10" departSpeed="0.00" departDelay="0.15" arrival="122.00" arrivalLane="E4_1" arrivalPos="79.20" arrivalSpeed="13.58" duration="79.00" routeLength="368.83" waitingTime="32.00" waitingCount="2" stopTime="0.00" timeLoss="50.69" rerouteNo="0" devices="tripinfo_f_3.3" vType="DEFAULT_VEHTYPE" speedFactor="1.00" vaporized=""/>
    <tripinfo id="f_10.3" depart="44.00" departLane="E10_0" departPos="5.10" departSpeed="0.00" departDelay="0.10" arrival="122.00" arrivalLane="E4_0" arrivalPos="79.20" arrivalSpeed="12.97" duration="78.00" routeLength="363.67" waitingTime="28.00" waitingCount="2" stopTime="0.00" timeLoss="50.15" rerouteNo="0" devices="tripinfo_f_10.3" vType="DEFAULT_VEHTYPE" speedFactor="1.02" vaporized=""/>
    <tripinfo id="f_5.3" depart="46.00" departLane="E10_0" departPos="5.10" departSpeed="0.00" departDelay="2.10" arrival="124.00" arrivalLane="E4_1" arrivalPos="79.20" arrivalSpeed="13.35" duration="78.00" routeLength="368.83" waitingTime="25.00" waitingCount="3" stopTime="0.00" timeLoss="49.06" rerouteNo="0" devices="tripinfo_f_5.3" vType="DEFAULT_VEHTYPE" speedFactor="0.99" vaporized=""/>
    <tripinfo id="f_3.4" depart="58.00" departLane="E10_0" departPos="5.10" departSpeed="0.00" departDelay="0.86" arrival="125.00" arrivalLane="E4_0" arrivalPos="79.20" arrivalSpeed="13.26" duration="67.00" routeLength="358.51" waitingTime="17.00" waitingCount="1" stopTime="0.00" timeLoss="38.49" rerouteNo="0" devices="tripinfo_f_3.4" vType="DEFAULT_VEHTYPE" speedFactor="0.97" vaporized=""/>
    <tripinfo id="f_10.4" depart="59.00" departLane="E10_0" departPos="5.10" departSpeed="0.00" departDelay="0.46" arrival="126.00" arrivalLane="E4_1" arrivalPos="79.20" arrivalSpeed="12.90" duration="67.00" routeLength="368.83" waitingTime="18.00" waitingCount="2" stopTime="0.00" timeLoss="38.48" rerouteNo="0" devices="tripinfo_f_10.4" vType="DEFAULT_VEHTYPE" speedFactor="0.98" vaporized=""/>
    <tripinfo id="f_5.4" depart="61.00" departLane="E10_0" departPos="5.10" departSpeed="0.00" departDelay="2.46" arrival="127.00" arrivalLane="E4_0" arrivalPos="79.20" arrivalSpeed="13.36" duration="66.00" routeLength="358.51" waitingTime="15.00" waitingCount="2" stopTime="0.00" timeLoss="39.36" rerouteNo="0" devices="tripinfo_f_5.4" vType="DEFAULT_VEHTYPE" speedFactor="1.03" vaporized=""/>
    <tripinfo id="f_4.1" depart="20.00" departLane="E23_0" departPos="5.10" departSpeed="0.00" departDelay="5.37" arrival="128.00" arrivalLane="E5_1" arrivalPos="79.20" arrivalSpeed="5.92" duration="108.00" routeLength="366.33" waitingTime="53.00" waitingCount="3" stopTime="0.00" timeLoss="84.26" rerouteNo="0" devices="tripinfo_f_4.1" vType="DEFAULT_VEHTYPE" speedFactor="1.13" vaporized=""/>
    <tripinfo id="f_1.3" depart="44.00" departLane="E4_0" departPos="5.10" departSpeed="0.00" departDelay="0.10" arrival="128.00" arrivalLane="E12_1" arrivalPos="92.00" arrivalSpeed="8.22" duration="84.00" routeLength="382.56" waitingTime="31.00" waitingCount="2" stopTime="0.00" timeLoss="58.59" rerouteNo="0" devices="tripinfo_f_1.3" vType="DEFAULT_VEHTYPE" speedFactor="1.14" vaporized=""/>
    <tripinfo id="f_3.5" depart="72.00" departLane="E10_0" departPos="5.10" departSpeed="0.00" departDelay="0.58" arrival="128.00" arrivalLane="E4_1" arrivalPos="79.20" arrivalSpeed="13.62" duration="56.00" routeLength="368.83" waitingTime="14.00" waitingCount="1" stopTime="0.00" timeLoss="28.27" rerouteNo="0" devices="tripinfo_f_3.5" vType="DEFAULT_VEHTYPE" speedFactor="1.01" vaporized=""/>
    <tripinfo id="f_1.2" depart="30.00" departLane="E4_0" departPos="5.10" departSpeed="0.00" departDelay="0.73" arrival="130.00" arrivalLane="E12_1" arrivalPos="92.00" arrivalSpeed="8.90" duration="100.00" routeLength="387.72" waitingTime="42.00" waitingCount="2" stopTime="0.00" timeLoss="70.98" rerouteNo="0" devices="tripinfo_f_1.2" vType="DEFAULT_VEHTYPE" speedFactor="1.03" vaporized=""/>
    <tripinfo id="f_5.5" depart="75.00" departLane="E10_0" departPos="5.10" departSpeed="0.00" departDelay="1.83" arrival="131.00" arrivalLane="E4_0" arrivalPos="79.20" arrivalSpeed="11.79" duration="56.00" routeLength="363.67" waitingTime="5.00" waitingCount="2" stopTime="0.00" timeLoss="24.32" rerouteNo="0" devices="tripinfo_f_5.5" vType="DEFAULT_VEHTYPE" speedFactor="0.91" vaporized=""/>