<?xml version="1.0" encoding="UTF-8"?>

<!-- generated on 2024-11-05 09:34:22 by Eclipse SUMO sumo Version 1.21.0
<sumoConfiguration xmlns:xsi="http://www.w3.org/2001/XMLSchema-instance" xsi:noNamespaceSchemaLocation="http://sumo.dlr.de/xsd/sumoConfiguration.xsd">

    <input>
        <net-file value="../sumo/test.net.xml"/>
        <route-files value="../sumo/test.rou.xml"/>
        <additional-files value="../sumo/test.add.xml"/>
    </input>

    <output>
        <tripinfo-output value="../sumo/tripinfo.xml"/>
    </output>

</sumoConfiguration>
-->

<tripinfos xmlns:xsi="http://www.w3.org/2001/XMLSchema-instance" xsi:noNamespaceSchemaLocation="http://sumo.dlr.de/xsd/tripinfo_file.xsd">
    <tripinfo id="f_6.0" depart="0.00" departLane="E4_0" departPos="5.10" departSpeed="0.00" departDelay="0.00" arrival="76.00" arrivalLane="E20_0" arrivalPos="89.60" arrivalSpeed="14.39" duration="76.00" routeLength="864.57" waitingTime="0.00" waitingCount="0" stopTime="0.00" timeLoss="13.83" rerouteNo="0" devices="tripinfo_f_6.0" vType="DEFAULT_VEHTYPE" speedFactor="1.05" vaporized=""/>
    <tripinfo id="f_2.0" depart="0.00" departLane="E7_0" departPos="5.10" departSpeed="0.00" departDelay="0.00" arrival="111.00" arrivalLane="E23_0" arrivalPos="89.60" arrivalSpeed="13.91" duration="111.00" routeLength="863.67" waitingTime="25.00" waitingCount="1" stopTime="0.00" timeLoss="47.07" rerouteNo="0" devices="tripinfo_f_2.0" vType="DEFAULT_VEHTYPE" speedFactor="1.01" vaporized=""/>
    <tripinfo id="f_8.0" depart="3.00" departLane="E7_0" departPos="5.10" departSpeed="0.00" departDelay="3.00" arrival="114.00" arrivalLane="E23_0" arrivalPos="89.60" arrivalSpeed="11.85" duration="111.00" routeLength="863.67" waitingTime="18.00" waitingCount="1" stopTime="0.00" timeLoss="42.60" rerouteNo="0" devices="tripinfo_f_8.0" vType="DEFAULT_VEHTYPE" speedFactor="0.94" vaporized=""/>
    <tripinfo id="f_0.0" depart="0.00" departLane="E21_0" departPos="5.10" departSpeed="0.00" departDelay="0.00" arrival="117.00" arrivalLane="E21_0" arrivalPos="89.60" arrivalSpeed="13.93" duration="117.00" routeLength="866.12" waitingTime="29.00" waitingCount="2" stopTime="0.00" timeLoss="55.89" rerouteNo="0" devices="tripinfo_f_0.0" vType="DEFAULT_VEHTYPE" speedFactor="1.06" vaporized=""/>
    <tripinfo id="f_7.0" depart="0.00" departLane="E1_0" departPos="5.10" departSpeed="0.00" departDelay="0.00" arrival="122.00" arrivalLane="E17_0" arrivalPos="89.60" arrivalSpeed="11.52" duration="122.00" routeLength="866.35" waitingTime="25.00" waitingCount="1" stopTime="0.00" timeLoss="48.17" rerouteNo="0" devices="tripinfo_f_7.0" vType="DEFAULT_VEHTYPE" speedFactor="0.89" vaporized=""/>
    <tripinfo id="f_3.0" depart="3.00" departLane="E21_0" departPos="5.10" departSpeed="0.00" departDelay="3.00" arrival="128.00" arrivalLane="E9_0" arrivalPos="85.60" arrivalSpeed="13.84" duration="125.00" routeLength="857.78" waitingTime="30.00" waitingCount="2" stopTime="0.00" timeLoss="63.68" rerouteNo="0" devices="tripinfo_f_3.0" vType="DEFAULT_VEHTYPE" speedFactor="1.08" vaporized=""/>
    <tripinfo id="f_10.0" depart="0.00" departLane="E19_0" departPos="5.10" departSpeed="0.00" departDelay="0.00" arrival="146.00" arrivalLane="E22_0" arrivalPos="92.00" arrivalSpeed="14.71" duration="146.00" routeLength="870.69" waitingTime="65.00" waitingCount="2" stopTime="0.00" timeLoss="87.56" rerouteNo="0" devices="tripinfo_f_10.0" vType="DEFAULT_VEHTYPE" speedFactor="1.09" vaporized=""/>
    <tripinfo id="f_9.0" depart="0.00" departLane="E20_0" departPos="5.10" departSpeed="0.00" departDelay="0.00" arrival="158.00" arrivalLane="E8_0" arrivalPos="92.00" arrivalSpeed="11.63" duration="158.00" routeLength="872.75" waitingTime="52.00" waitingCount="2" stopTime="0.00" timeLoss="80.99" rerouteNo="0" devices="tripinfo_f_9.0" vType="DEFAULT_VEHTYPE" speedFactor="0.86" vaporized=""/>
    <tripinfo id="f_1.0" depart="0.00" departLane="E6_0" departPos="5.10" departSpeed="0.00" departDelay="0.00" arrival="165.00" arrivalLane="E22_0" arrivalPos="92.00" arrivalSpeed="12.26" duration="165.00" routeLength="863.95" waitingTime="72.00" waitingCount="2" stopTime="0.00" timeLoss="94.95" rerouteNo="0" devices="tripinfo_f_1.0" vType="DEFAULT_VEHTYPE" speedFactor="0.94" vaporized=""/>
    <tripinfo id="f_5.0" depart="0.00" departLane="E22_0" departPos="5.10" departSpeed="0.00" departDelay="0.00" arrival="165.00" arrivalLane="E6_0" arrivalPos="89.60" arrivalSpeed="11.08" duration="165.00" routeLength="872.24" waitingTime="61.00" waitingCount="2" stopTime="0.00" timeLoss="87.86" rerouteNo="0" devices="tripinfo_f_5.0" vType="DEFAULT_VEHTYPE" speedFactor="0.83" vaporized=""/>
    <tripinfo id="f_4.0" depart="0.00" departLane="E23_0" departPos="5.10" departSpeed="0.00" departDelay="0.00" arrival="190.00" arrivalLane="E11_0" arrivalPos="92.00" arrivalSpeed="13.11" duration="190.00" routeLength="874.69" waitingTime="87.00" waitingCount="4" stopTime="0.00" timeLoss="127.53" rerouteNo="0" devices="tripinfo_f_4.0" vType="DEFAULT_VEHTYPE" speedFactor="1.03" vaporized=""/>
    <tripinfo id="f_1.1" depart="400.00" departLane="E6_0" departPos="5.10" departSpeed="0.00" departDelay="0.00" arrival="523.00" arrivalLane="E22_0" arrivalPos="92.00" arrivalSpeed="13.27" duration="123.00" routeLength="863.95" waitingTime="34.00" waitingCount="2" stopTime="0.00" timeLoss="60.41" rerouteNo="0" devices="tripinfo_f_1.1" vType="DEFAULT_VEHTYPE" speedFactor="1.05" vaporized=""/>
    <tripinfo id="f_6.1" depart="400.00" departLane="E4_0" departPos="5.10" departSpeed="0.00" departDelay="0.00" arrival="528.00" arrivalLane="E20_0" arrivalPos="89.60" arrivalSpeed="12.66" duration="128.00" routeLength="864.57" waitingTime="36.00" waitingCount="1" stopTime="0.00" timeLoss="61.29" rerouteNo="0" devices="tripinfo_f_6.1" vType="DEFAULT_VEHTYPE" speedFactor="0.99" vaporized=""/>
    <tripinfo id="f_9.1" depart="400.00" departLane="E20_0" departPos="5.10" departSpeed="0.00" departDelay="0.00" arrival="528.00" arrivalLane="E8_0" arrivalPos="92.00" arrivalSpeed="11.87" duration="128.00" routeLength="872.75" waitingTime="30.00" waitingCount="1" stopTime="0.00" timeLoss="53.07" rerouteNo="0" devices="tripinfo_f_9.1" vType="DEFAULT_VEHTYPE" speedFactor="0.88" vaporized=""/>
    <tripinfo id="f_3.1" depart="403.00" departLane="E21_0" departPos="5.10" departSpeed="0.00" departDelay="3.00" arrival="543.00" arrivalLane="E9_0" arrivalPos="85.60" arrivalSpeed="4.78" duration="140.00" routeLength="857.78" waitingTime="49.00" waitingCount="2" stopTime="0.00" timeLoss="81.85" rerouteNo="0" devices="tripinfo_f_3.1" vType="DEFAULT_VEHTYPE" speedFactor="1.12" vaporized=""/>
    <tripinfo id="f_0.1" depart="400.00" departLane="E21_0" departPos="5.10" departSpeed="0.00" departDelay="0.00" arrival="550.00" arrivalLane="E21_0" arrivalPos="89.60" arrivalSpeed="13.83" duration="150.00" routeLength="866.12" waitingTime="58.00" waitingCount="3" stopTime="0.00" timeLoss="87.31" rerouteNo="0" devices="tripinfo_f_0.1" vType="DEFAULT_VEHTYPE" speedFactor="1.03" vaporized=""/>
    <tripinfo id="f_8.1" depart="400.00" departLane="E7_0" departPos="5.10" departSpeed="0.00" departDelay="0.00" arrival="563.00" arrivalLane="E23_0" arrivalPos="89.60" arrivalSpeed="11.94" duration="163.00" routeLength="863.67" waitingTime="60.00" waitingCount="3" stopTime="0.00" timeLoss="93.34" rerouteNo="0" devices="tripinfo_f_8.1" vType="DEFAULT_VEHTYPE" speedFactor="0.93" vaporized=""/>
    <tripinfo id="f_2.1" depart="450.00" departLane="E7_0" departPos="5.10" departSpeed="0.00" departDelay="0.00" arrival="566.00" arrivalLane="E23_0" arrivalPos="89.60" arrivalSpeed="12.58" duration="116.00" routeLength="863.67" waitingTime="21.00" waitingCount="1" stopTime="0.00" timeLoss="46.93" rerouteNo="0" devices="tripinfo_f_2.1" vType="DEFAULT_VEHTYPE" speedFactor="0.94" vaporized=""/>
    <tripinfo id="f_10.1" depart="450.00" departLane="E19_0" departPos="5.10" departSpeed="0.00" departDelay="0.00" arrival="576.00" arrivalLane="E22_0" arrivalPos="92.00" arrivalSpeed="13.89" duration="126.00" routeLength="870.69" waitingTime="31.00" waitingCount="2" stopTime="0.00" timeLoss="62.48" rerouteNo="0" devices="tripinfo_f_10.1" vType="DEFAULT_VEHTYPE" speedFactor="1.01" vaporized=""/>
    <tripinfo id="f_5.1" depart="450.00" departLane="E22_0" departPos="5.10" departSpeed="0.00" departDelay="0.00" arrival="600.00" arrivalLane="E6_0" arrivalPos="89.60" arrivalSpeed="14.97" duration="150.00" routeLength="872.24" waitingTime="62.00" waitingCount="2" stopTime="0.00" timeLoss="95.13" rerouteNo="0" devices="tripinfo_f_5.1" vType="DEFAULT_VEHTYPE" speedFactor="1.16" vaporized=""/>
    <tripinfo id="f_4.1" depart="450.00" departLane="E23_0" departPos="5.10" departSpeed="0.00" departDelay="0.00" arrival="641.00" arrivalLane="E11_0" arrivalPos="92.00" arrivalSpeed="11.83" duration="191.00" routeLength="874.69" waitingTime="88.00" waitingCount="3" stopTime="0.00" timeLoss="121.28" rerouteNo="0" devices="tripinfo_f_4.1" vType="DEFAULT_VEHTYPE" speedFactor="0.94" vaporized=""/>
    <tripinfo id="f_7.1" depart="450.00" departLane="E1_0" departPos="5.10" departSpeed="0.00" departDelay="0.00" arrival="660.00" arrivalLane="E17_0" arrivalPos="89.60" arrivalSpeed="12.87" duration="210.00" routeLength="866.35" waitingTime="106.00" waitingCount="4" stopTime="0.00" timeLoss="146.10" rerouteNo="0" devices="tripinfo_f_7.1" vType="DEFAULT_VEHTYPE" speedFactor="1.02" vaporized=""/>
    <tripinfo id="f_1.2" depart="800.00" departLane="E6_0" departPos="5.10" departSpeed="0.00" departDelay="0.00" arrival="889.00" arrivalLane="E22_0" arrivalPos="92.00" arrivalSpeed="11.52" duration="89.00" routeLength="863.95" waitingTime="0.00" waitingCount="0" stopTime="0.00" timeLoss="16.78" rerouteNo="0" devices="tripinfo_f_1.2" vType="DEFAULT_VEHTYPE" speedFactor="0.89" vaporized=""/>
    <tripinfo id="f_6.2" depart="800.00" departLane="E4_0" departPos="5.10" departSpeed="0.00" departDelay="0.00" arrival="889.00" arrivalLane="E20_0" arrivalPos="89.60" arrivalSpeed="11.32" duration="89.00" routeLength="864.57" waitingTime="0.00" waitingCount="0" stopTime="0.00" timeLoss="15.06" rerouteNo="0" devices="tripinfo_f_6.2" vType="DEFAULT_VEHTYPE" speedFactor="0.87" vaporized=""/>
    <tripinfo id="f_3.2" depart="803.00" departLane="E21_0" departPos="5.10" departSpeed="0.00" departDelay="3.00" arrival="922.00" arrivalLane="E9_0" arrivalPos="85.60" arrivalSpeed="10.97" duration="119.00" routeLength="857.78" waitingTime="16.00" waitingCount="1" stopTime="0.00" timeLoss="39.23" rerouteNo="0" devices="tripinfo_f_3.2" vType="DEFAULT_VEHTYPE" speedFactor="0.83" vaporized=""/>
    <tripinfo id="f_8.2" depart="800.00" departLane="E7_0" departPos="5.10" departSpeed="0.00" departDelay="0.00" arrival="922.00" arrivalLane="E23_0" arrivalPos="89.60" arrivalSpeed="12.38" duration="122.00" routeLength="863.67" waitingTime="21.00" waitingCount="2" stopTime="0.00" timeLoss="51.20" rerouteNo="0" devices="tripinfo_f_8.2" vType="DEFAULT_VEHTYPE" speedFactor="0.92" vaporized=""/>
    <tripinfo id="f_0.2" depart="800.00" departLane="E21_0" departPos="5.10" departSpeed="0.00" departDelay="0.00" arrival="928.00" arrivalLane="E21_0" arrivalPos="89.60" arrivalSpeed="12.88" duration="128.00" routeLength="866.12" waitingTime="41.00" waitingCount="1" stopTime="0.00" timeLoss="61.43" rerouteNo="0" devices="tripinfo_f_0.2" vType="DEFAULT_VEHTYPE" speedFactor="0.97" vaporized=""/>
    <tripinfo id="f_9.2" depart="800.00" departLane="E20_0" departPos="5.10" departSpeed="0.00" departDelay="0.00" arrival="956.00" arrivalLane="E8_0" arrivalPos="92.00" arrivalSpeed="12.90" duration="156.00" routeLength="872.75" waitingTime="59.00" waitingCount="2" stopTime="0.00" timeLoss="87.10" rerouteNo="0" devices="tripinfo_f_9.2" vType="DEFAULT_VEHTYPE" speedFactor="0.95" vaporized=""/>
    <tripinfo id="f_2.2" depart="900.00" departLane="E7_0" departPos="5.10" departSpeed="0.00" departDelay="0.00" arrival="1016.00" arrivalLane="E23_0" arrivalPos="89.60" arrivalSpeed="15.71" duration="116.00" routeLength="863.67" waitingTime="26.00" waitingCount="3" stopTime="0.00" timeLoss="59.16" rerouteNo="0" devices="tripinfo_f_2.2" vType="DEFAULT_VEHTYPE" speedFactor="1.13" vaporized=""/>
    <tripinfo id="f_10.2" depart="900.00" departLane="E19_0" departPos="5.10" departSpeed="0.00" departDelay="0.00" arrival="1016.00" arrivalLane="E22_0" arrivalPos="92.00" arrivalSpeed="13.22" duration="116.00" routeLength="870.69" waitingTime="28.00" waitingCount="1" stopTime="0.00" timeLoss="52.06" rerouteNo="0" devices="tripinfo_f_10.2" vType="DEFAULT_VEHTYPE" speedFactor="1.01" vaporized=""/>
    <tripinfo id="f_7.2" depart="900.00" departLane="E1_0" departPos="5.10" departSpeed="0.00" departDelay="0.00" arrival="1018.00" arrivalLane="E17_0" arrivalPos="89.60" arrivalSpeed="16.01" duration="118.00" routeLength="866.35" waitingTime="33.00" waitingCount="1" stopTime="0.00" timeLoss="61.82" rerouteNo="0" devices="tripinfo_f_7.2" vType="DEFAULT_VEHTYPE" speedFactor="1.15" vaporized=""/>
    <tripinfo id="f_5.2" depart="900.00" departLane="E22_0" departPos="5.10" departSpeed="0.00" departDelay="0.00" arrival="1076.00" arrivalLane="E6_0" arrivalPos="89.60" arrivalSpeed="15.59" duration="176.00" routeLength="872.24" waitingTime="83.00" waitingCount="3" stopTime="0.00" timeLoss="121.18" rerouteNo="0" devices="tripinfo_f_5.2" vType="DEFAULT_VEHTYPE" speedFactor="1.18" vaporized=""/>
    <tripinfo id="f_4.2" depart="900.00" departLane="E23_0" departPos="5.10" departSpeed="0.00" departDelay="0.00" arrival="1091.00" arrivalLane="E11_0" arrivalPos="92.00" arrivalSpeed="12.41" duration="191.00" routeLength="874.69" waitingTime="89.00" waitingCount="3" stopTime="0.00" timeLoss="121.59" rerouteNo="0" devices="tripinfo_f_4.2" vType="DEFAULT_VEHTYPE" speedFactor="0.93" vaporized=""/>
    <tripinfo id="f_0.3" depart="1200.00" departLane="E21_0" departPos="5.10" departSpeed="0.00" departDelay="0.00" arrival="1284.00" arrivalLane="E21_0" arrivalPos="89.60" arrivalSpeed="14.11" duration="84.00" routeLength="866.12" waitingTime="4.00" waitingCount="1" stopTime="0.00" timeLoss="28.41" rerouteNo="0" devices="tripinfo_f_0.3" vType="DEFAULT_VEHTYPE" speedFactor="1.17" vaporized=""/>
    <tripinfo id="f_3.3" depart="1203.00" departLane="E21_0" departPos="5.10" departSpeed="0.00" departDelay="3.00" arrival="1288.00" arrivalLane="E9_0" arrivalPos="85.60" arrivalSpeed="13.26" duration="85.00" routeLength="857.78" waitingTime="0.00" waitingCount="0" stopTime="0.00" timeLoss="21.07" rerouteNo="0" devices="tripinfo_f_3.3" vType="DEFAULT_VEHTYPE" speedFactor="1.02" vaporized=""/>
    <tripinfo id="f_8.3" depart="1200.00" departLane="E7_0" departPos="5.10" departSpeed="0.00" departDelay="0.00" arrival="1296.00" arrivalLane="E23_0" arrivalPos="89.60" arrivalSpeed="15.39" duration="96.00" routeLength="863.67" waitingTime="12.00" waitingCount="2" stopTime="0.00" timeLoss="41.18" rerouteNo="0" devices="tripinfo_f_8.3" vType="DEFAULT_VEHTYPE" speedFactor="1.18" vaporized=""/>
    <tripinfo id="f_9.3" depart="1200.00" departLane="E20_0" departPos="5.10" departSpeed="0.00" departDelay="0.00" arrival="1324.00" arrivalLane="E8_0" arrivalPos="92.00" arrivalSpeed="14.47" duration="124.00" routeLength="872.75" waitingTime="44.00" waitingCount="1" stopTime="0.00" timeLoss="64.91" rerouteNo="0" devices="tripinfo_f_9.3" vType="DEFAULT_VEHTYPE" speedFactor="1.10" vaporized=""/>
    <tripinfo id="f_1.3" depart="1200.00" departLane="E6_0" departPos="5.10" departSpeed="0.00" departDelay="0.00" arrival="1332.00" arrivalLane="E22_0" arrivalPos="92.00" arrivalSpeed="13.65" duration="132.00" routeLength="863.95" waitingTime="41.00" waitingCount="2" stopTime="0.00" timeLoss="66.26" rerouteNo="0" devices="tripinfo_f_1.3" vType="DEFAULT_VEHTYPE" speedFactor="0.99" vaporized=""/>
    <tripinfo id="f_6.3" depart="1200.00" departLane="E4_0" departPos="5.10" departSpeed="0.00" departDelay="0.00" arrival="1333.00" arrivalLane="E20_0" arrivalPos="89.60" arrivalSpeed="12.75" duration="133.00" routeLength="864.57" waitingTime="42.00" waitingCount="2" stopTime="0.00" timeLoss="66.86" rerouteNo="0" devices="tripinfo_f_6.3" vType="DEFAULT_VEHTYPE" speedFactor="0.97" vaporized=""/>
    <tripinfo id="f_2.3" depart="1350.00" departLane="E7_0" departPos="5.10" departSpeed="0.00" departDelay="0.00" arrival="1461.00" arrivalLane="E23_0" arrivalPos="89.60" arrivalSpeed="11.66" duration="111.00" routeLength="863.67" waitingTime="18.00" waitingCount="1" stopTime="0.00" timeLoss="39.90" rerouteNo="0" devices="tripinfo_f_2.3" vType="DEFAULT_VEHTYPE" speedFactor="0.90" vaporized=""/>
    <tripinfo id="f_7.3" depart="1350.00" departLane="E1_0" departPos="5.10" departSpeed="0.00" departDelay="0.00" arrival="1469.00" arrivalLane="E17_0" arrivalPos="89.60" arrivalSpeed="14.48" duration="119.00" routeLength="866.35" waitingTime="33.00" waitingCount="1" stopTime="0.00" timeLoss="59.27" rerouteNo="0" devices="tripinfo_f_7.3" vType="DEFAULT_VEHTYPE" speedFactor="1.09" vaporized=""/>
    <tripinfo id="f_4.3" depart="1350.00" departLane="E23_0" departPos="5.10" departSpeed="0.00" departDelay="0.00" arrival="1483.00" arrivalLane="E11_0" arrivalPos="92.00" arrivalSpeed="13.74" duration="133.00" routeLength="874.69" waitingTime="38.00" waitingCount="2" stopTime="0.00" timeLoss="70.98" rerouteNo="0" devices="tripinfo_f_4.3" vType="DEFAULT_VEHTYPE" speedFactor="1.03" vaporized=""/>
    <tripinfo id="f_5.3" depart="1350.00" departLane="E22_0" departPos="5.10" departSpeed="0.00" departDelay="0.00" arrival="1490.00" arrivalLane="E6_0" arrivalPos="89.60" arrivalSpeed="12.47" duration="140.00" routeLength="872.24" waitingTime="46.00" waitingCount="2" stopTime="0.00" timeLoss="73.40" rerouteNo="0" devices="tripinfo_f_5.3" vType="DEFAULT_VEHTYPE" speedFactor="0.96" vaporized=""/>
    <tripinfo id="f_10.3" depart="1350.00" departLane="E19_0" departPos="5.10" departSpeed="0.00" departDelay="0.00" arrival="1493.00" arrivalLane="E22_0" arrivalPos="92.00" arrivalSpeed="14.09" duration="143.00" routeLength="870.69" waitingTime="58.00" waitingCount="2" stopTime="0.00" timeLoss="80.98" rerouteNo="0" devices="tripinfo_f_10.3" vType="DEFAULT_VEHTYPE" speedFactor="1.04" vaporized=""/>
    <tripinfo id="f_1.4" depart="1600.00" departLane="E6_0" departPos="5.10" departSpeed="0.00" departDelay="0.00" arrival="1691.00" arrivalLane="E22_0" arrivalPos="92.00" arrivalSpeed="14.56" duration="91.00" routeLength="863.95" waitingTime="4.00" waitingCount="1" stopTime="0.00" timeLoss="32.31" rerouteNo="0" devices="tripinfo_f_1.4" vType="DEFAULT_VEHTYPE" speedFactor="1.09" vaporized=""/>
    <tripinfo id="f_6.4" depart="1600.00" departLane="E4_0" departPos="5.10" departSpeed="0.00" departDelay="0.00" arrival="1698.00" arrivalLane="E20_0" arrivalPos="89.60" arrivalSpeed="12.07" duration="98.00" routeLength="864.57" waitingTime="6.00" waitingCount="1" stopTime="0.00" timeLoss="26.08" rerouteNo="0" devices="tripinfo_f_6.4" vType="DEFAULT_VEHTYPE" speedFactor="0.90" vaporized=""/>
    <tripinfo id="f_8.4" depart="1600.00" departLane="E7_0" departPos="5.10" departSpeed="0.00" departDelay="0.00" arrival="1732.00" arrivalLane="E23_0" arrivalPos="89.60" arrivalSpeed="11.55" duration="132.00" routeLength="863.67" waitingTime="37.00" waitingCount="1" stopTime="0.00" timeLoss="58.46" rerouteNo="0" devices="tripinfo_f_8.4" vType="DEFAULT_VEHTYPE" speedFactor="0.88" vaporized=""/>
    <tripinfo id="f_0.4" depart="1600.00" departLane="E21_0" departPos="5.10" departSpeed="0.00" departDelay="0.00" arrival="1737.00" arrivalLane="E21_0" arrivalPos="89.60" arrivalSpeed="13.94" duration="137.00" routeLength="866.12" waitingTime="49.00" waitingCount="2" stopTime="0.00" timeLoss="75.47" rerouteNo="0" devices="tripinfo_f_0.4" vType="DEFAULT_VEHTYPE" speedFactor="1.04" vaporized=""/>
    <tripinfo id="f_3.4" depart="1603.00" departLane="E21_0" departPos="5.10" departSpeed="0.00" departDelay="3.00" arrival="1757.00" arrivalLane="E9_0" arrivalPos="85.60" arrivalSpeed="13.61" duration="154.00" routeLength="857.78" waitingTime="59.00" waitingCount="2" stopTime="0.00" timeLoss="89.48" rerouteNo="0" devices="tripinfo_f_3.4" vType="DEFAULT_VEHTYPE" speedFactor="1.00" vaporized=""/>
    <tripinfo id="f_9.4" depart="1600.00" departLane="E20_0" departPos="5.10" departSpeed="0.00" departDelay="0.00" arrival="1778.00" arrivalLane="E8_0" arrivalPos="92.00" arrivalSpeed="10.57" duration="178.00" routeLength="872.75" waitingTime="77.00" waitingCount="2" stopTime="0.00" timeLoss="100.54" rerouteNo="0" devices="tripinfo_f_9.4" vType="DEFAULT_VEHTYPE" speedFactor="0.85" vaporized=""/>
    <tripinfo id="f_2.4" depart="1800.00" departLane="E7_0" departPos="5.10" departSpeed="0.00" departDelay="0.00" arrival="1913.00" arrivalLane="E23_0" arrivalPos="89.60" arrivalSpeed="11.61" duration="113.00" routeLength="863.67" waitingTime="17.00" waitingCount="1" stopTime="0.00" timeLoss="37.92" rerouteNo="0" devices="tripinfo_f_2.4" vType="DEFAULT_VEHTYPE" speedFactor="0.85" vaporized=""/>
    <tripinfo id="f_10.4" depart="1800.00" departLane="E19_0" departPos="5.10" departSpeed="0.00" departDelay="0.00" arrival="1924.00" arrivalLane="E22_0" arrivalPos="92.00" arrivalSpeed="13.76" duration="124.00" routeLength="870.69" waitingTime="29.00" waitingCount="2" stopTime="0.00" timeLoss="59.17" rerouteNo="0" devices="tripinfo_f_10.4" vType="DEFAULT_VEHTYPE" speedFactor="1.00" vaporized=""/>
    <tripinfo id="f_4.4" depart="1800.00" departLane="E23_0" departPos="5.10" departSpeed="0.00" departDelay="0.00" arrival="1925.00" arrivalLane="E11_0" arrivalPos="92.00" arrivalSpeed="15.98" duration="125.00" routeLength="874.69" waitingTime="37.00" waitingCount="2" stopTime="0.00" timeLoss="69.23" rerouteNo="0" devices="tripinfo_f_4.4" vType="DEFAULT_VEHTYPE" speedFactor="1.17" vaporized=""/>
    <tripinfo id="f_5.4" depart="1800.00" departLane="E22_0" departPos="5.10" departSpeed="0.00" departDelay="0.00" arrival="1940.00" arrivalLane="E6_0" arrivalPos="89.60" arrivalSpeed="12.86" duration="140.00" routeLength="872.24" waitingTime="45.00" waitingCount="3" stopTime="0.00" timeLoss="76.92" rerouteNo="0" devices="tripinfo_f_5.4" vType="DEFAULT_VEHTYPE" speedFactor="1.02" vaporized=""/>
    <tripinfo id="f_7.4" depart="1800.00" departLane="E1_0" departPos="5.10" departSpeed="0.00" departDelay="0.00" arrival="2008.00" arrivalLane="E17_0" arrivalPos="89.60" arrivalSpeed="14.48" duration="208.00" routeLength="866.35" waitingTime="112.00" waitingCount="4" stopTime="0.00" timeLoss="148.84" rerouteNo="0" devices="tripinfo_f_7.4" vType="DEFAULT_VEHTYPE" speedFactor="1.10" vaporized=""/>
    <tripinfo id="f_3.5" depart="2003.00" departLane="E21_0" departPos="5.10" departSpeed="0.00" departDelay="3.00" arrival="2084.00" arrivalLane="E9_0" arrivalPos="85.60" arrivalSpeed="15.15" duration="81.00" routeLength="857.78" waitingTime="0.00" waitingCount="0" stopTime="0.00" timeLoss="23.25" rerouteNo="0" devices="tripinfo_f_3.5" vType="DEFAULT_VEHTYPE" speedFactor="1.14" vaporized=""/>
    <tripinfo id="f_8.5" depart="2000.00" departLane="E7_0" departPos="5.10" departSpeed="0.00" departDelay="0.00" arrival="2090.00" arrivalLane="E23_0" arrivalPos="89.60" arrivalSpeed="13.09" duration="90.00" routeLength="863.67" waitingTime="4.00" waitingCount="1" stopTime="0.00" timeLoss="24.93" rerouteNo="0" devices="tripinfo_f_8.5" vType="DEFAULT_VEHTYPE" speedFactor="0.97" vaporized=""/>
    <tripinfo id="f_0.5" depart="2000.00" departLane="E21_0" departPos="5.10" departSpeed="0.00" departDelay="0.00" arrival="2098.00" arrivalLane="E21_0" arrivalPos="89.60" arrivalSpeed="13.45" duration="98.00" routeLength="866.12" waitingTime="10.00" waitingCount="1" stopTime="0.00" timeLoss="32.67" rerouteNo="0" devices="tripinfo_f_0.5" vType="DEFAULT_VEHTYPE" speedFactor="1.00" vaporized=""/>
    <tripinfo id="f_9.5" depart="2000.00" departLane="E20_0" departPos="5.10" departSpeed="0.00" departDelay="0.00" arrival="2125.00" arrivalLane="E8_0" arrivalPos="92.00" arrivalSpeed="14.89" duration="125.00" routeLength="872.75" waitingTime="43.00" waitingCount="1" stopTime="0.00" timeLoss="64.46" rerouteNo="0" devices="tripinfo_f_9.5" vType="DEFAULT_VEHTYPE" speedFactor="1.08" vaporized=""/>
    <tripinfo id="f_6.5" depart="2000.00" departLane="E4_0" departPos="5.10" departSpeed="0.00" departDelay="0.00" arrival="2142.00" arrivalLane="E20_0" arrivalPos="89.60" arrivalSpeed="13.47" duration="142.00" routeLength="864.57" waitingTime="55.00" waitingCount="2" stopTime="0.00" timeLoss="78.75" rerouteNo="0" devices="tripinfo_f_6.5" vType="DEFAULT_VEHTYPE" speedFactor="1.02" vaporized=""/>
    <tripinfo id="f_1.5" depart="2000.00" departLane="E6_0" departPos="5.10" departSpeed="0.00" departDelay="0.00" arrival="2146.00" arrivalLane="E22_0" arrivalPos="92.00" arrivalSpeed="11.84" duration="146.00" routeLength="863.95" waitingTime="48.00" waitingCount="2" stopTime="0.00" timeLoss="73.27" rerouteNo="0" devices="tripinfo_f_1.5" vType="DEFAULT_VEHTYPE" speedFactor="0.90" vaporized=""/>
    <tripinfo id="f_2.5" depart="2250.00" departLane="E7_0" departPos="5.10" departSpeed="0.00" departDelay="0.00" arrival="2359.00" arrivalLane="E23_0" arrivalPos="89.60" arrivalSpeed="15.34" duration="109.00" routeLength="863.67" waitingTime="15.00" waitingCount="1" stopTime="0.00" timeLoss="50.93" rerouteNo="0" devices="tripinfo_f_2.5" vType="DEFAULT_VEHTYPE" speedFactor="1.12" vaporized=""/>
    <tripinfo id="f_4.5" depart="2250.00" departLane="E23_0" departPos="5.10" departSpeed="0.00" departDelay="0.00" arrival="2372.00" arrivalLane="E11_0" arrivalPos="92.00" arrivalSpeed="14.02" duration="122.00" routeLength="874.69" waitingTime="29.00" waitingCount="2" stopTime="0.00" timeLoss="58.61" rerouteNo="0" devices="tripinfo_f_4.5" vType="DEFAULT_VEHTYPE" speedFactor="1.02" vaporized=""/>
    <tripinfo id="f_10.5" depart="2250.00" departLane="E19_0" departPos="5.10" departSpeed="0.00" departDelay="0.00" arrival="2380.00" arrivalLane="E22_0" arrivalPos="92.00" arrivalSpeed="11.33" duration="130.00" routeLength="870.69" waitingTime="27.00" waitingCount="3" stopTime="0.00" timeLoss="57.03" rerouteNo="0" devices="tripinfo_f_10.5" vType="DEFAULT_VEHTYPE" speedFactor="0.88" vaporized=""/>
    <tripinfo id="f_5.5" depart="2250.00" departLane="E22_0" departPos="5.10" departSpeed="0.00" departDelay="0.00" arrival="2421.00" arrivalLane="E6_0" arrivalPos="89.60" arrivalSpeed="12.77" duration="171.00" routeLength="872.24" waitingTime="72.00" waitingCount="3" stopTime="0.00" timeLoss="106.04" rerouteNo="0" devices="tripinfo_f_5.5" vType="DEFAULT_VEHTYPE" speedFactor="0.99" vaporized=""/>
    <tripinfo id="f_7.5" depart="2250.00" departLane="E1_0" departPos="5.10" departSpeed="0.00" departDelay="0.00" arrival="2461.00" arrivalLane="E17_0" arrivalPos="89.60" arrivalSpeed="12.41" duration="211.00" routeLength="866.35" waitingTime="104.00" waitingCount="3" stopTime="0.00" timeLoss="141.82" rerouteNo="0" devices="tripinfo_f_7.5" vType="DEFAULT_VEHTYPE" speedFactor="0.94" vaporized=""/>
    <tripinfo id="f_1.6" depart="2400.00" departLane="E6_0" departPos="5.10" departSpeed="0.00" departDelay="0.00" arrival="2505.00" arrivalLane="E22_0" arrivalPos="92.00" arrivalSpeed="11.98" duration="105.00" routeLength="863.95" waitingTime="10.00" waitingCount="1" stopTime="0.00" timeLoss="33.67" rerouteNo="0" devices="tripinfo_f_1.6" vType="DEFAULT_VEHTYPE" speedFactor="0.91" vaporized=""/>
    <tripinfo id="f_6.6" depart="2400.00" departLane="E4_0" departPos="5.10" departSpeed="0.00" departDelay="0.00" arrival="2505.00" arrivalLane="E20_0" arrivalPos="89.60" arrivalSpeed="14.09" duration="105.00" routeLength="864.57" waitingTime="16.00" waitingCount="1" stopTime="0.00" timeLoss="41.48" rerouteNo="0" devices="tripinfo_f_6.6" vType="DEFAULT_VEHTYPE" speedFactor="1.02" vaporized=""/>
    <tripinfo id="f_3.6" depart="2403.00" departLane="E21_0" departPos="5.10" departSpeed="0.00" departDelay="3.00" arrival="2532.00" arrivalLane="E9_0" arrivalPos="85.60" arrivalSpeed="13.53" duration="129.00" routeLength="857.78" waitingTime="34.00" waitingCount="2" stopTime="0.00" timeLoss="66.79" rerouteNo="0" devices="tripinfo_f_3.6" vType="DEFAULT_VEHTYPE" speedFactor="1.04" vaporized=""/>
    <tripinfo id="f_8.6" depart="2400.00" departLane="E7_0" departPos="5.10" departSpeed="0.00" departDelay="0.00" arrival="2548.00" arrivalLane="E23_0" arrivalPos="89.60" arrivalSpeed="13.32" duration="148.00" routeLength="863.67" waitingTime="55.00" waitingCount="3" stopTime="0.00" timeLoss="85.96" rerouteNo="0" devices="tripinfo_f_8.6" vType="DEFAULT_VEHTYPE" speedFactor="1.02" vaporized=""/>
    <tripinfo id="f_0.6" depart="2400.00" departLane="E21_0" departPos="5.10" departSpeed="0.00" departDelay="0.00" arrival="2550.00" arrivalLane="E21_0" arrivalPos="89.60" arrivalSpeed="11.56" duration="150.00" routeLength="866.12" waitingTime="51.00" waitingCount="3" stopTime="0.00" timeLoss="79.14" rerouteNo="0" devices="tripinfo_f_0.6" vType="DEFAULT_VEHTYPE" speedFactor="0.91" vaporized=""/>
    <tripinfo id="f_9.6" depart="2400.00" departLane="E20_0" departPos="5.10" departSpeed="0.00" departDelay="0.00" arrival="2575.00" arrivalLane="E8_0" arrivalPos="92.00" arrivalSpeed="13.01" duration="175.00" routeLength="872.75" waitingTime="80.00" waitingCount="2" stopTime="0.00" timeLoss="106.89" rerouteNo="0" devices="tripinfo_f_9.6" vType="DEFAULT_VEHTYPE" speedFactor="0.97" vaporized=""/>
    <tripinfo id="f_4.6" depart="2700.00" departLane="E23_0" departPos="5.10" departSpeed="0.00" departDelay="0.00" arrival="2814.00" arrivalLane="E11_0" arrivalPos="92.00" arrivalSpeed="13.77" duration="114.00" routeLength="874.69" waitingTime="26.00" waitingCount="1" stopTime="0.00" timeLoss="51.83" rerouteNo="0" devices="tripinfo_f_4.6" vType="DEFAULT_VEHTYPE" speedFactor="1.06" vaporized=""/>