<?xml version="1.0" encoding="UTF-8"?>

<!-- generated on 2024-11-09 11:26:53 by Eclipse SUMO sumo Version 1.21.0
<sumoConfiguration xmlns:xsi="http://www.w3.org/2001/XMLSchema-instance" xsi:noNamespaceSchemaLocation="http://sumo.dlr.de/xsd/sumoConfiguration.xsd">

    <input>
        <net-file value="../sumo/test.net.xml"/>
        <route-files value="../sumo/test.rou.xml"/>
        <additional-files value="../sumo/test.add.xml"/>
    </input>

    <output>
        <tripinfo-output value="../sumo/tripinfo.xml"/>
    </output>

</sumoConfiguration>
-->

<tripinfos xmlns:xsi="http://www.w3.org/2001/XMLSchema-instance" xsi:noNamespaceSchemaLocation="http://sumo.dlr.de/xsd/tripinfo_file.xsd">
    <tripinfo id="f_5.0" depart="3.00" departLane="E13_0" departPos="5.10" departSpeed="0.00" departDelay="3.00" arrival="113.00" arrivalLane="E3_0" arrivalPos="89.60" arrivalSpeed="10.54" duration="110.00" routeLength="780.06" waitingTime="18.00" waitingCount="2" stopTime="0.00" timeLoss="41.14" rerouteNo="0" devices="tripinfo_f_5.0" vType="DEFAULT_VEHTYPE" speedFactor="0.83" vaporized=""/>
    <tripinfo id="f_0.0" depart="0.00" departLane="E13_0" departPos="5.10" departSpeed="0.00" departDelay="0.00" arrival="145.00" arrivalLane="E15_0" arrivalPos="92.00" arrivalSpeed="9.20" duration="145.00" routeLength="773.89" waitingTime="61.00" waitingCount="3" stopTime="0.00" timeLoss="90.91" rerouteNo="0" devices="tripinfo_f_0.0" vType="DEFAULT_VEHTYPE" speedFactor="1.06" vaporized=""/>
    <tripinfo id="f_9.0" depart="6.00" departLane="E13_0" departPos="5.10" departSpeed="0.00" departDelay="6.00" arrival="154.00" arrivalLane="E15_0" arrivalPos="92.00" arrivalSpeed="11.38" duration="148.00" routeLength="780.80" waitingTime="43.00" waitingCount="3" stopTime="0.00" timeLoss="78.36" rerouteNo="0" devices="tripinfo_f_9.0" vType="DEFAULT_VEHTYPE" speedFactor="0.86" vaporized=""/>
    <tripinfo id="f_6.0" depart="0.00" departLane="E4_0" departPos="5.10" departSpeed="0.00" departDelay="0.00" arrival="159.00" arrivalLane="E12_0" arrivalPos="92.00" arrivalSpeed="13.51" duration="159.00" routeLength="770.17" waitingTime="64.00" waitingCount="5" stopTime="0.00" timeLoss="103.26" rerouteNo="0" devices="tripinfo_f_6.0" vType="DEFAULT_VEHTYPE" speedFactor="1.05" vaporized=""/>
    <tripinfo id="f_6.1" depart="12.00" departLane="E4_0" departPos="5.10" departSpeed="0.00" departDelay="0.68" arrival="168.00" arrivalLane="E12_0" arrivalPos="92.00" arrivalSpeed="12.41" duration="156.00" routeLength="770.17" waitingTime="51.00" waitingCount="4" stopTime="0.00" timeLoss="94.03" rerouteNo="0" devices="tripinfo_f_6.1" vType="DEFAULT_VEHTYPE" speedFactor="0.94" vaporized=""/>
    <tripinfo id="f_6.2" depart="23.00" departLane="E4_0" departPos="5.10" departSpeed="0.00" departDelay="0.36" arrival="174.00" arrivalLane="E12_0" arrivalPos="92.00" arrivalSpeed="14.94" duration="151.00" routeLength="770.17" waitingTime="50.00" waitingCount="4" stopTime="0.00" timeLoss="98.68" rerouteNo="0" devices="tripinfo_f_6.2" vType="DEFAULT_VEHTYPE" speedFactor="1.13" vaporized=""/>
    <tripinfo id="f_5.1" depart="17.00" departLane="E13_0" departPos="5.10" departSpeed="0.00" departDelay="5.99" arrival="206.00" arrivalLane="E3_0" arrivalPos="89.60" arrivalSpeed="6.23" duration="189.00" routeLength="780.06" waitingTime="89.00" waitingCount="3" stopTime="0.00" timeLoss="128.43" rerouteNo="0" devices="tripinfo_f_5.1" vType="DEFAULT_VEHTYPE" speedFactor="0.94" vaporized=""/>
    <tripinfo id="f_5.2" depart="28.00" departLane="E13_0" departPos="5.10" departSpeed="0.00" departDelay="5.98" arrival="208.00" arrivalLane="E3_0" arrivalPos="89.60" arrivalSpeed="7.66" duration="180.00" routeLength="780.06" waitingTime="75.00" waitingCount="2" stopTime="0.00" timeLoss="119.98" rerouteNo="0" devices="tripinfo_f_5.2" vType="DEFAULT_VEHTYPE" speedFactor="0.95" vaporized=""/>
    <tripinfo id="f_3.0" depart="0.00" departLane="E23_0" departPos="5.10" departSpeed="0.00" departDelay="0.00" arrival="213.00" arrivalLane="E20_0" arrivalPos="89.60" arrivalSpeed="5.08" duration="213.00" routeLength="752.46" waitingTime="97.00" waitingCount="4" stopTime="0.00" timeLoss="159.85" rerouteNo="0" devices="tripinfo_f_3.0" vType="DEFAULT_VEHTYPE" speedFactor="1.08" vaporized=""/>
    <tripinfo id="f_5.3" depart="39.00" departLane="E13_0" departPos="5.10" departSpeed="0.00" departDelay="5.97" arrival="213.00" arrivalLane="E3_0" arrivalPos="89.60" arrivalSpeed="6.95" duration="174.00" routeLength="780.06" waitingTime="66.00" waitingCount="3" stopTime="0.00" timeLoss="126.29" rerouteNo="0" devices="tripinfo_f_5.3" vType="DEFAULT_VEHTYPE" speedFactor="1.18" vaporized=""/>
    <tripinfo id="f_3.1" depart="11.00" departLane="E23_0" departPos="5.10" departSpeed="0.00" departDelay="0.35" arrival="215.00" arrivalLane="E20_0" arrivalPos="89.60" arrivalSpeed="7.44" duration="204.00" routeLength="752.46" waitingTime="82.00" waitingCount="4" stopTime="0.00" timeLoss="149.69" rerouteNo="0" devices="tripinfo_f_3.1" vType="DEFAULT_VEHTYPE" speedFactor="1.09" vaporized=""/>
    <tripinfo id="f_5.4" depart="47.00" departLane="E13_0" departPos="5.10" departSpeed="0.00" departDelay="2.96" arrival="216.00" arrivalLane="E3_0" arrivalPos="89.60" arrivalSpeed="9.23" duration="169.00" routeLength="780.06" waitingTime="60.00" waitingCount="3" stopTime="0.00" timeLoss="111.50" rerouteNo="0" devices="tripinfo_f_5.4" vType="DEFAULT_VEHTYPE" speedFactor="1.00" vaporized=""/>
    <tripinfo id="f_6.3" depart="34.00" departLane="E4_0" departPos="5.10" departSpeed="0.00" departDelay="0.04" arrival="237.00" arrivalLane="E12_0" arrivalPos="92.00" arrivalSpeed="14.67" duration="203.00" routeLength="770.17" waitingTime="94.00" waitingCount="6" stopTime="0.00" timeLoss="149.57" rerouteNo="0" devices="tripinfo_f_6.3" vType="DEFAULT_VEHTYPE" speedFactor="1.10" vaporized=""/>
    <tripinfo id="f_9.1" depart="11.00" departLane="E13_0" departPos="5.10" departSpeed="0.00" departDelay="0.06" arrival="243.00" arrivalLane="E15_0" arrivalPos="92.00" arrivalSpeed="8.92" duration="232.00" routeLength="780.80" waitingTime="108.00" waitingCount="5" stopTime="0.00" timeLoss="175.21" rerouteNo="0" devices="tripinfo_f_9.1" vType="DEFAULT_VEHTYPE" speedFactor="1.05" vaporized=""/>
    <tripinfo id="f_9.2" depart="22.00" departLane="E13_0" departPos="5.10" departSpeed="0.00" departDelay="0.12" arrival="245.00" arrivalLane="E15_0" arrivalPos="92.00" arrivalSpeed="10.35" duration="223.00" routeLength="780.80" waitingTime="96.00" waitingCount="5" stopTime="0.00" timeLoss="161.37" rerouteNo="0" devices="tripinfo_f_9.2" vType="DEFAULT_VEHTYPE" speedFactor="0.97" vaporized=""/>
    <tripinfo id="f_9.3" depart="33.00" departLane="E13_0" departPos="5.10" departSpeed="0.00" departDelay="0.17" arrival="251.00" arrivalLane="E15_0" arrivalPos="92.00" arrivalSpeed="8.13" duration="218.00" routeLength="780.80" waitingTime="84.00" waitingCount="6" stopTime="0.00" timeLoss="159.25" rerouteNo="0" devices="tripinfo_f_9.3" vType="DEFAULT_VEHTYPE" speedFactor="1.01" vaporized=""/>
    <tripinfo id="f_9.4" depart="44.00" departLane="E13_0" departPos="5.10" departSpeed="0.00" departDelay="0.23" arrival="253.00" arrivalLane="E15_0" arrivalPos="92.00" arrivalSpeed="11.70" duration="209.00" routeLength="780.80" waitingTime="77.00" waitingCount="6" stopTime="0.00" timeLoss="155.32" rerouteNo="0" devices="tripinfo_f_9.4" vType="DEFAULT_VEHTYPE" speedFactor="1.09" vaporized=""/>
    <tripinfo id="f_0.1" depart="14.00" departLane="E13_0" departPos="5.10" departSpeed="0.00" departDelay="2.72" arrival="260.00" arrivalLane="E15_0" arrivalPos="92.00" arrivalSpeed="7.67" duration="246.00" routeLength="773.89" waitingTime="144.00" waitingCount="4" stopTime="0.00" timeLoss="194.80" rerouteNo="0" devices="tripinfo_f_0.1" vType="DEFAULT_VEHTYPE" speedFactor="1.12" vaporized=""/>
    <tripinfo id="f_6.4" depart="46.00" departLane="E4_0" departPos="5.10" departSpeed="0.00" departDelay="0.72" arrival="262.00" arrivalLane="E12_0" arrivalPos="92.00" arrivalSpeed="5.23" duration="216.00" routeLength="770.17" waitingTime="86.00" waitingCount="8" stopTime="0.00" timeLoss="147.56" rerouteNo="0" devices="tripinfo_f_6.4" vType="DEFAULT_VEHTYPE" speedFactor="0.85" vaporized=""/>
    <tripinfo id="f_6.5" depart="57.00" departLane="E4_0" departPos="5.10" departSpeed="0.00" departDelay="0.40" arrival="264.00" arrivalLane="E12_0" arrivalPos="92.00" arrivalSpeed="6.08" duration="207.00" routeLength="770.17" waitingTime="97.00" waitingCount="3" stopTime="0.00" timeLoss="147.55" rerouteNo="0" devices="tripinfo_f_6.5" vType="DEFAULT_VEHTYPE" speedFactor="0.97" vaporized=""/>
    <tripinfo id="f_2.0" depart="0.00" departLane="E15_0" departPos="5.10" departSpeed="0.00" departDelay="0.00" arrival="278.00" arrivalLane="E14_0" arrivalPos="85.60" arrivalSpeed="5.17" duration="278.00" routeLength="765.32" waitingTime="152.00" waitingCount="8" stopTime="0.00" timeLoss="220.83" rerouteNo="0" devices="tripinfo_f_2.0" vType="DEFAULT_VEHTYPE" speedFactor="1.01" vaporized=""/>
    <tripinfo id="f_4.0" depart="0.00" departLane="E10_0" departPos="5.10" departSpeed="0.00" departDelay="0.00" arrival="315.00" arrivalLane="E5_0" arrivalPos="85.60" arrivalSpeed="5.49" duration="315.00" routeLength="776.57" waitingTime="188.00" waitingCount="7" stopTime="0.00" timeLoss="258.59" rerouteNo="0" devices="tripinfo_f_4.0" vType="DEFAULT_VEHTYPE" speedFactor="1.03" vaporized=""/>
    <tripinfo id="f_0.2" depart="25.00" departLane="E13_0" departPos="5.10" departSpeed="0.00" departDelay="2.43" arrival="326.00" arrivalLane="E15_0" arrivalPos="92.00" arrivalSpeed="10.88" duration="301.00" routeLength="773.89" waitingTime="178.00" waitingCount="5" stopTime="0.00" timeLoss="235.89" rerouteNo="0" devices="tripinfo_f_0.2" vType="DEFAULT_VEHTYPE" speedFactor="0.89" vaporized=""/>
    <tripinfo id="f_0.3" depart="36.00" departLane="E13_0" departPos="5.10" departSpeed="0.00" departDelay="2.15" arrival="337.00" arrivalLane="E15_0" arrivalPos="92.00" arrivalSpeed="11.91" duration="301.00" routeLength="773.89" waitingTime="170.00" waitingCount="7" stopTime="0.00" timeLoss="252.34" rerouteNo="0" devices="tripinfo_f_0.3" vType="DEFAULT_VEHTYPE" speedFactor="1.17" vaporized=""/>
    <tripinfo id="f_9.5" depart="55.00" departLane="E13_0" departPos="5.10" departSpeed="0.00" departDelay="0.29" arrival="404.00" arrivalLane="E15_0" arrivalPos="92.00" arrivalSpeed="4.81" duration="349.00" routeLength="780.80" waitingTime="193.00" waitingCount="8" stopTime="0.00" timeLoss="290.98" rerouteNo="0" devices="tripinfo_f_9.5" vType="DEFAULT_VEHTYPE" speedFactor="1.02" vaporized=""/>
    <tripinfo id="f_9.6" depart="66.00" departLane="E13_0" departPos="5.10" departSpeed="0.00" departDelay="0.35" arrival="413.00" arrivalLane="E15_0" arrivalPos="92.00" arrivalSpeed="10.70" duration="347.00" routeLength="780.80" waitingTime="180.00" waitingCount="10" stopTime="0.00" timeLoss="288.01" rerouteNo="0" devices="tripinfo_f_9.6" vType="DEFAULT_VEHTYPE" speedFactor="1.02" vaporized=""/>
    <tripinfo id="f_9.7" depart="77.00" departLane="E13_0" departPos="5.10" departSpeed="0.00" departDelay="0.41" arrival="415.00" arrivalLane="E15_0" arrivalPos="92.00" arrivalSpeed="12.91" duration="338.00" routeLength="780.80" waitingTime="161.00" waitingCount="8" stopTime="0.00" timeLoss="274.16" rerouteNo="0" devices="tripinfo_f_9.7" vType="DEFAULT_VEHTYPE" speedFactor="0.94" vaporized=""/>
    <tripinfo id="f_2.1" depart="12.00" departLane="E15_0" departPos="5.10" departSpeed="0.00" departDelay="0.82" arrival="418.00" arrivalLane="E14_0" arrivalPos="85.60" arrivalSpeed="4.90" duration="406.00" routeLength="765.32" waitingTime="259.00" waitingCount="9" stopTime="0.00" timeLoss="344.19" rerouteNo="0" devices="tripinfo_f_2.1" vType="DEFAULT_VEHTYPE" speedFactor="0.93" vaporized=""/>
    <tripinfo id="f_5.5" depart="58.00" departLane="E13_0" departPos="5.10" departSpeed="0.00" departDelay="2.96" arrival="419.00" arrivalLane="E3_0" arrivalPos="89.60" arrivalSpeed="7.77" duration="361.00" routeLength="780.06" waitingTime="215.00" waitingCount="6" stopTime="0.00" timeLoss="297.77" rerouteNo="0" devices="tripinfo_f_5.5" vType="DEFAULT_VEHTYPE" speedFactor="0.90" vaporized=""/>
    <tripinfo id="f_2.2" depart="23.00" departLane="E15_0" departPos="5.10" departSpeed="0.00" departDelay="0.64" arrival="420.00" arrivalLane="E14_0" arrivalPos="85.60" arrivalSpeed="7.70" duration="397.00" routeLength="765.32" waitingTime="241.00" waitingCount="9" stopTime="0.00" timeLoss="330.71" rerouteNo="0" devices="tripinfo_f_2.2" vType="DEFAULT_VEHTYPE" speedFactor="0.87" vaporized=""/>
    <tripinfo id="f_9.8" depart="88.00" departLane="E13_0" departPos="5.10" departSpeed="0.00" departDelay="0.46" arrival="422.00" arrivalLane="E15_0" arrivalPos="92.00" arrivalSpeed="11.06" duration="334.00" routeLength="780.80" waitingTime="159.00" waitingCount="8" stopTime="0.00" timeLoss="275.32" rerouteNo="0" devices="tripinfo_f_9.8" vType="DEFAULT_VEHTYPE" speedFactor="1.02" vaporized=""/>
    <tripinfo id="f_2.3" depart="34.00" departLane="E15_0" departPos="5.10" departSpeed="0.00" departDelay="0.46" arrival="423.00" arrivalLane="E14_0" arrivalPos="85.60" arrivalSpeed="10.22" duration="389.00" routeLength="765.32" waitingTime="229.00" waitingCount="8" stopTime="0.00" timeLoss="332.85" rerouteNo="0" devices="tripinfo_f_2.3" vType="DEFAULT_VEHTYPE" speedFactor="1.02" vaporized=""/>
    <tripinfo id="f_2.4" depart="45.00" departLane="E15_0" departPos="5.10" departSpeed="0.00" departDelay="0.28" arrival="424.00" arrivalLane="E14_0" arrivalPos="85.60" arrivalSpeed="10.31" duration="379.00" routeLength="765.32" waitingTime="226.00" waitingCount="8" stopTime="0.00" timeLoss="323.15" rerouteNo="0" devices="tripinfo_f_2.4" vType="DEFAULT_VEHTYPE" speedFactor="1.04" vaporized=""/>
    <tripinfo id="f_9.9" depart="117.00" departLane="E13_0" departPos="5.10" departSpeed="0.00" departDelay="18.52" arrival="425.00" arrivalLane="E15_0" arrivalPos="92.00" arrivalSpeed="10.44" duration="308.00" routeLength="780.80" waitingTime="127.00" waitingCount="7" stopTime="0.00" timeLoss="235.45" rerouteNo="0" devices="tripinfo_f_9.9" vType="DEFAULT_VEHTYPE" speedFactor="0.83" vaporized=""/>
    <tripinfo id="f_2.5" depart="56.00" departLane="E15_0" departPos="5.10" departSpeed="0.00" departDelay="0.10" arrival="427.00" arrivalLane="E14_0" arrivalPos="85.60" arrivalSpeed="12.18" duration="371.00" routeLength="765.32" waitingTime="220.00" waitingCount="8" stopTime="0.00" timeLoss="313.11" rerouteNo="0" devices="tripinfo_f_2.5" vType="DEFAULT_VEHTYPE" speedFactor="1.00" vaporized=""/>
    <tripinfo id="f_2.6" depart="69.00" departLane="E15_0" departPos="5.10" departSpeed="0.00" departDelay="1.92" arrival="429.00" arrivalLane="E14_0" arrivalPos="85.60" arrivalSpeed="13.93" duration="360.00" routeLength="765.32" waitingTime="209.00" waitingCount="7" stopTime="0.00" timeLoss="304.09" rerouteNo="0" devices="tripinfo_f_2.6" vType="DEFAULT_VEHTYPE" speedFactor="1.04" vaporized=""/>
    <tripinfo id="f_9.10" depart="126.00" departLane="E13_0" departPos="5.10" departSpeed="0.00" departDelay="16.58" arrival="434.00" arrivalLane="E15_0" arrivalPos="92.00" arrivalSpeed="13.39" duration="308.00" routeLength="780.80" waitingTime="132.00" waitingCount="7" stopTime="0.00" timeLoss="246.22" rerouteNo="0" devices="tripinfo_f_9.10" vType="DEFAULT_VEHTYPE" speedFactor="0.97" vaporized=""/>
    <tripinfo id="f_0.4" depart="50.00" departLane="E13_0" departPos="5.10" departSpeed="0.00" departDelay="4.86" arrival="440.00" arrivalLane="E15_0" arrivalPos="92.00" arrivalSpeed="11.92" duration="390.00" routeLength="773.89" waitingTime="231.00" waitingCount="7" stopTime="0.00" timeLoss="323.89" rerouteNo="0" devices="tripinfo_f_0.4" vType="DEFAULT_VEHTYPE" speedFactor="0.88" vaporized=""/>
    <tripinfo id="f_4.1" depart="12.00" departLane="E10_0" departPos="5.10" departSpeed="0.00" departDelay="0.89" arrival="624.00" arrivalLane="E5_0" arrivalPos="85.60" arrivalSpeed="5.78" duration="612.00" routeLength="776.57" waitingTime="471.00" waitingCount="8" stopTime="0.00" timeLoss="544.72" rerouteNo="0" devices="tripinfo_f_4.1" vType="DEFAULT_VEHTYPE" speedFactor="0.88" vaporized=""/>
    <tripinfo id="f_4.2" depart="23.00" departLane="E10_0" departPos="5.10" departSpeed="0.00" departDelay="0.78" arrival="626.00" arrivalLane="E5_0" arrivalPos="85.60" arrivalSpeed="7.15" duration="603.00" routeLength="776.57" waitingTime="458.00" waitingCount="8" stopTime="0.00" timeLoss="539.46" rerouteNo="0" devices="tripinfo_f_4.2" vType="DEFAULT_VEHTYPE" speedFactor="0.92" vaporized=""/>
    <tripinfo id="f_5.6" depart="69.00" departLane="E13_0" departPos="5.10" departSpeed="0.00" departDelay="2.95" arrival="676.00" arrivalLane="E3_0" arrivalPos="89.60" arrivalSpeed="4.34" duration="607.00" routeLength="780.06" waitingTime="438.00" waitingCount="10" stopTime="0.00" timeLoss="542.41" rerouteNo="0" devices="tripinfo_f_5.6" vType="DEFAULT_VEHTYPE" speedFactor="0.88" vaporized=""/>
    <tripinfo id="f_5.7" depart="80.00" departLane="E13_0" departPos="5.10" departSpeed="0.00" departDelay="2.94" arrival="678.00" arrivalLane="E3_0" arrivalPos="89.60" arrivalSpeed="5.61" duration="598.00" routeLength="780.06" waitingTime="419.00" waitingCount="10" stopTime="0.00" timeLoss="539.92" rerouteNo="0" devices="tripinfo_f_5.7" vType="DEFAULT_VEHTYPE" speedFactor="0.98" vaporized=""/>
    <tripinfo id="f_5.8" depart="91.00" departLane="E13_0" departPos="5.10" departSpeed="0.00" departDelay="2.93" arrival="684.00" arrivalLane="E3_0" arrivalPos="89.60" arrivalSpeed="4.58" duration="593.00" routeLength="780.06" waitingTime="406.00" waitingCount="9" stopTime="0.00" timeLoss="535.35" rerouteNo="0" devices="tripinfo_f_5.8" vType="DEFAULT_VEHTYPE" speedFactor="0.98" vaporized=""/>
    <tripinfo id="f_6.6" depart="68.00" departLane="E4_0" departPos="5.10" departSpeed="0.00" departDelay="0.08" arrival="695.00" arrivalLane="E12_0" arrivalPos="92.00" arrivalSpeed="8.24" duration="627.00" routeLength="770.17" waitingTime="485.00" waitingCount="10" stopTime="0.00" timeLoss="570.23" rerouteNo="0" devices="tripinfo_f_6.6" vType="DEFAULT_VEHTYPE" speedFactor="1.02" vaporized=""/>
    <tripinfo id="f_6.7" depart="80.00" departLane="E4_0" departPos="5.10" departSpeed="0.00" departDelay="0.76" arrival="697.00" arrivalLane="E12_0" arrivalPos="92.00" arrivalSpeed="10.86" duration="617.00" routeLength="770.17" waitingTime="467.00" waitingCount="11" stopTime="0.00" timeLoss="563.91" rerouteNo="0" devices="tripinfo_f_6.7" vType="DEFAULT_VEHTYPE" speedFactor="1.09" vaporized=""/>
    <tripinfo id="f_6.8" depart="91.00" departLane="E4_0" departPos="5.10" departSpeed="0.00" departDelay="0.44" arrival="699.00" arrivalLane="E12_0" arrivalPos="92.00" arrivalSpeed="12.93" duration="608.00" routeLength="770.17" waitingTime="456.00" waitingCount="10" stopTime="0.00" timeLoss="550.50" rerouteNo="0" devices="tripinfo_f_6.8" vType="DEFAULT_VEHTYPE" speedFactor="1.02" vaporized=""/>
    <tripinfo id="f_1.0" depart="0.00" departLane="E2_0" departPos="5.10" departSpeed="0.00" departDelay="0.00" arrival="721.00" arrivalLane="E1_0" arrivalPos="92.00" arrivalSpeed="5.68" duration="721.00" routeLength="765.32" waitingTime="597.00" waitingCount="8" stopTime="0.00" timeLoss="660.37" rerouteNo="0" devices="tripinfo_f_1.0" vType="DEFAULT_VEHTYPE" speedFactor="0.94" vaporized=""/>
    <tripinfo id="f_1.1" depart="14.00" departLane="E2_0" departPos="5.10" departSpeed="0.00" departDelay="2.96" arrival="723.00" arrivalLane="E1_0" arrivalPos="92.00" arrivalSpeed="8.18" duration="709.00" routeLength="765.32" waitingTime="573.00" waitingCount="8" stopTime="0.00" timeLoss="650.71" rerouteNo="0" devices="tripinfo_f_1.1" vType="DEFAULT_VEHTYPE" speedFactor="0.99" vaporized=""/>
    <tripinfo id="f_0.5" depart="61.00" departLane="E13_0" departPos="5.10" departSpeed="0.00" departDelay="4.58" arrival="758.00" arrivalLane="E15_0" arrivalPos="92.00" arrivalSpeed="7.20" duration="697.00" routeLength="773.89" waitingTime="525.00" waitingCount="11" stopTime="0.00" timeLoss="641.01" rerouteNo="0" devices="tripinfo_f_0.5" vType="DEFAULT_VEHTYPE" speedFactor="1.02" vaporized=""/>
    <tripinfo id="f_0.6" depart="72.00" departLane="E13_0" departPos="5.10" departSpeed="0.00" departDelay="4.29" arrival="769.00" arrivalLane="E15_0" arrivalPos="92.00" arrivalSpeed="10.94" duration="697.00" routeLength="773.89" waitingTime="505.00" waitingCount="13" stopTime="0.00" timeLoss="633.61" rerouteNo="0" devices="tripinfo_f_0.6" vType="DEFAULT_VEHTYPE" speedFactor="0.91" vaporized=""/>
    <tripinfo id="f_9.11" depart="135.00" departLane="E13_0" departPos="5.10" departSpeed="0.00" departDelay="14.64" arrival="775.00" arrivalLane="E15_0" arrivalPos="92.00" arrivalSpeed="12.72" duration="640.00" routeLength="780.80" waitingTime="439.00" waitingCount="15" stopTime="0.00" timeLoss="586.04" rerouteNo="0" devices="tripinfo_f_9.11" vType="DEFAULT_VEHTYPE" speedFactor="1.10" vaporized=""/>
    <tripinfo id="f_0.7" depart="83.00" departLane="E13_0" departPos="5.10" departSpeed="0.00" departDelay="4.01" arrival="778.00" arrivalLane="E15_0" arrivalPos="92.00" arrivalSpeed="12.88" duration="695.00" routeLength="773.89" waitingTime="514.00" waitingCount="11" stopTime="0.00" timeLoss="636.73" rerouteNo="0" devices="tripinfo_f_0.7" vType="DEFAULT_VEHTYPE" speedFactor="0.98" vaporized=""/>
    <tripinfo id="f_9.13" depart="153.00" departLane="E13_0" departPos="5.10" departSpeed="0.00" departDelay="10.75" arrival="784.00" arrivalLane="E15_0" arrivalPos="92.00" arrivalSpeed="13.16" duration="631.00" routeLength="780.80" waitingTime="427.00" waitingCount="10" stopTime="0.00" timeLoss="568.01" rerouteNo="0" devices="tripinfo_f_9.13" vType="DEFAULT_VEHTYPE" speedFactor="0.96" vaporized=""/>
    <tripinfo id="f_9.12" depart="144.00" departLane="E13_0" departPos="5.10" departSpeed="0.00" departDelay="12.70" arrival="785.00" arrivalLane="E15_0" arrivalPos="92.00" arrivalSpeed="14.29" duration="641.00" routeLength="771.77" waitingTime="442.00" waitingCount="12" stopTime="0.00" timeLoss="576.75" rerouteNo="0" devices="tripinfo_f_9.12" vType="DEFAULT_VEHTYPE" speedFactor="1.03" vaporized=""/>
    <tripinfo id="f_0.8" depart="113.00" departLane="E13_0" departPos="5.10" departSpeed="0.00" departDelay="22.72" arrival="844.00" arrivalLane="E15_0" arrivalPos="92.00" arrivalSpeed="5.05" duration="731.00" routeLength="773.89" waitingTime="543.00" waitingCount="10" stopTime="0.00" timeLoss="673.87" rerouteNo="0" devices="tripinfo_f_0.8" vType="DEFAULT_VEHTYPE" speedFactor="1.01" vaporized=""/>
    <tripinfo id="f_4.3" depart="34.00" departLane="E10_0" departPos="5.10" departSpeed="0.00" departDelay="0.67" arrival="851.00" arrivalLane="E5_0" arrivalPos="85.60" arrivalSpeed="5.52" duration="817.00" routeLength="776.57" waitingTime="641.00" waitingCount="13" stopTime="0.00" timeLoss="756.64" rerouteNo="0" devices="tripinfo_f_4.3" vType="DEFAULT_VEHTYPE" speedFactor="0.97" vaporized=""/>
    <tripinfo id="f_4.4" depart="45.00" departLane="E10_0" departPos="5.10" departSpeed="0.00" departDelay="0.56" arrival="853.00" arrivalLane="E5_0" arrivalPos="85.60" arrivalSpeed="7.94" duration="808.00" routeLength="776.57" waitingTime="619.00" waitingCount="13" stopTime="0.00" timeLoss="753.94" rerouteNo="0" devices="tripinfo_f_4.4" vType="DEFAULT_VEHTYPE" speedFactor="1.09" vaporized=""/>
    <tripinfo id="f_4.5" depart="56.00" departLane="E10_0" departPos="5.10" departSpeed="0.00" departDelay="0.45" arrival="855.00" arrivalLane="E5_0" arrivalPos="85.60" arrivalSpeed="9.97" duration="799.00" routeLength="776.57" waitingTime="637.00" waitingCount="11" stopTime="0.00" timeLoss="739.60" rerouteNo="0" devices="tripinfo_f_4.5" vType="DEFAULT_VEHTYPE" speedFactor="1.00" vaporized=""/>
    <tripinfo id="f_4.6" depart="67.00" departLane="E10_0" departPos="5.10" departSpeed="0.00" departDelay="0.33" arrival="929.00" arrivalLane="E5_0" arrivalPos="85.60" arrivalSpeed="5.70" duration="862.00" routeLength="776.57" waitingTime="682.00" waitingCount="14" stopTime="0.00" timeLoss="799.83" rerouteNo="0" devices="tripinfo_f_4.6" vType="DEFAULT_VEHTYPE" speedFactor="0.94" vaporized=""/>
    <tripinfo id="f_9.14" depart="164.00" departLane="E13_0" departPos="5.10" departSpeed="0.00" departDelay="10.81" arrival="944.00" arrivalLane="E15_0" arrivalPos="92.00" arrivalSpeed="9.34" duration="780.00" routeLength="780.80" waitingTime="580.00" waitingCount="13" stopTime="0.00" timeLoss="717.73" rerouteNo="0" devices="tripinfo_f_9.14" vType="DEFAULT_VEHTYPE" speedFactor="0.94" vaporized=""/>
    <tripinfo id="f_9.15" depart="212.00" departLane="E13_0" departPos="5.10" departSpeed="0.00" departDelay="47.87" arrival="946.00" arrivalLane="E15_0" arrivalPos="92.00" arrivalSpeed="11.35" duration="734.00" routeLength="780.80" waitingTime="525.00" waitingCount="10" stopTime="0.00" timeLoss="678.20" rerouteNo="0" devices="tripinfo_f_9.15" vType="DEFAULT_VEHTYPE" speedFactor="1.07" vaporized=""/>
    <tripinfo id="f_2.7" depart="79.00" departLane="E15_0" departPos="5.10" departSpeed="0.00" departDelay="0.74" arrival="951.00" arrivalLane="E14_0" arrivalPos="85.60" arrivalSpeed="5.10" duration="872.00" routeLength="765.32" waitingTime="672.00" waitingCount="15" stopTime="0.00" timeLoss="815.24" rerouteNo="0" devices="tripinfo_f_2.7" vType="DEFAULT_VEHTYPE" speedFactor="1.01" vaporized=""/>
    <tripinfo id="f_0.9" depart="123.00" departLane="E13_0" departPos="5.10" departSpeed="0.00" departDelay="21.44" arrival="966.00" arrivalLane="E15_0" arrivalPos="92.00" arrivalSpeed="5.07" duration="843.00" routeLength="773.89" waitingTime="627.00" waitingCount="15" stopTime="0.00" timeLoss="791.49" rerouteNo="0" devices="tripinfo_f_0.9" vType="DEFAULT_VEHTYPE" speedFactor="1.12" vaporized=""/>
    <tripinfo id="f_5.9" depart="120.00" departLane="E13_0" departPos="5.10" departSpeed="0.00" departDelay="20.92" arrival="967.00" arrivalLane="E3_0" arrivalPos="89.60" arrivalSpeed="6.71" duration="847.00" routeLength="780.06" waitingTime="636.00" waitingCount="12" stopTime="0.00" timeLoss="793.19" rerouteNo="0" devices="tripinfo_f_5.9" vType="DEFAULT_VEHTYPE" speedFactor="1.06" vaporized=""/>
    <tripinfo id="f_4.7" depart="78.00" departLane="E10_0" departPos="5.10" departSpeed="0.00" departDelay="0.22" arrival="1002.00" arrivalLane="E5_0" arrivalPos="85.60" arrivalSpeed="5.26" duration="924.00" routeLength="776.57" waitingTime="737.00" waitingCount="14" stopTime="0.00" timeLoss="862.40" rerouteNo="0" devices="tripinfo_f_4.7" vType="DEFAULT_VEHTYPE" speedFactor="0.96" vaporized=""/>
    <tripinfo id="f_4.8" depart="89.00" departLane="E10_0" departPos="5.10" departSpeed="0.00" departDelay="0.11" arrival="1005.00" arrivalLane="E5_0" arrivalPos="85.60" arrivalSpeed="8.43" duration="916.00" routeLength="776.57" waitingTime="728.00" waitingCount="14" stopTime="0.00" timeLoss="865.14" rerouteNo="0" devices="tripinfo_f_4.8" vType="DEFAULT_VEHTYPE" speedFactor="1.15" vaporized=""/>
    <tripinfo id="f_4.9" depart="100.00" departLane="E10_0" departPos="5.10" departSpeed="0.00" departDelay="0.00" arrival="1007.00" arrivalLane="E5_0" arrivalPos="85.60" arrivalSpeed="9.28" duration="907.00" routeLength="776.57" waitingTime="720.00" waitingCount="12" stopTime="0.00" timeLoss="852.92" rerouteNo="0" devices="tripinfo_f_4.9" vType="DEFAULT_VEHTYPE" speedFactor="1.09" vaporized=""/>
    <tripinfo id="f_6.9" depart="137.00" departLane="E4_0" departPos="5.10" departSpeed="0.00" departDelay="35.12" arrival="1021.00" arrivalLane="E12_0" arrivalPos="92.00" arrivalSpeed="4.25" duration="884.00" routeLength="758.97" waitingTime="693.00" waitingCount="14" stopTime="0.00" timeLoss="822.11" rerouteNo="0" devices="tripinfo_f_6.9" vType="DEFAULT_VEHTYPE" speedFactor="1.10" vaporized=""/>
    <tripinfo id="f_5.10" depart="129.00" departLane="E13_0" departPos="5.10" departSpeed="0.00" departDelay="18.91" arrival="1052.00" arrivalLane="E3_0" arrivalPos="89.60" arrivalSpeed="4.71" duration="923.00" routeLength="780.06" waitingTime="690.00" waitingCount="14" stopTime="0.00" timeLoss="858.93" rerouteNo="0" devices="tripinfo_f_5.10" vType="DEFAULT_VEHTYPE" speedFactor="0.89" vaporized=""/>
    <tripinfo id="f_5.11" depart="138.00" departLane="E13_0" departPos="5.10" departSpeed="0.00" departDelay="16.90" arrival="1060.00" arrivalLane="E3_0" arrivalPos="89.60" arrivalSpeed="4.32" duration="922.00" routeLength="780.06" waitingTime="693.00" waitingCount="16" stopTime="0.00" timeLoss="869.93" rerouteNo="0" devices="tripinfo_f_5.11" vType="DEFAULT_VEHTYPE" speedFactor="1.10" vaporized=""/>
    <tripinfo id="f_9.16" depart="223.00" departLane="E13_0" departPos="5.10" departSpeed="0.00" departDelay="47.93" arrival="1274.00" arrivalLane="E15_0" arrivalPos="92.00" arrivalSpeed="5.75" duration="1051.00" routeLength="780.80" waitingTime="832.00" waitingCount="14" stopTime="0.00" timeLoss="990.89" rerouteNo="0" devices="tripinfo_f_9.16" vType="DEFAULT_VEHTYPE" speedFactor="0.99" vaporized=""/>
    <tripinfo id="f_9.17" depart="232.00" departLane="E13_0" departPos="5.10" departSpeed="0.00" departDelay="45.99" arrival="1276.00" arrivalLane="E15_0" arrivalPos="92.00" arrivalSpeed="7.54" duration="1044.00" routeLength="780.80" waitingTime="819.00" waitingCount="16" stopTime="0.00" timeLoss="978.35" rerouteNo="0" devices="tripinfo_f_9.17" vType="DEFAULT_VEHTYPE" speedFactor="0.89" vaporized=""/>
    <tripinfo id="f_2.19" depart="251.00" departLane="E15_0" departPos="5.10" departSpeed="0.00" departDelay="38.58" arrival="1484.00" arrivalLane="E14_0" arrivalPos="85.60" arrivalSpeed="0.00" duration="1233.00" routeLength="742.51" waitingTime="816.00" waitingCount="13" stopTime="0.00" timeLoss="921.54" rerouteNo="0" devices="tripinfo_f_2.19" vType="DEFAULT_VEHTYPE" speedFactor="0.87" vaporized="teleport"/>